54
Lattice="7.627385 7.627386 -1e-06 -1e-06 7.627385 7.627385 7.627382 2e-06 7.627382" Properties=species:S:1:pos:R:3:momenta:R:3:masses:R:1:forces:R:3 config_type=dia energy=-8794.898055 virial="164.80234081 -0.94166008 -2.17225686 -0.94166008 164.79706204 1.87613594 -2.17225686 1.87613594 165.0303085" pbc="T T T"
Si      -0.00487391      -0.03820557       0.04214892       0.00000000       0.00000000       0.00000000      28.08500000       0.21542000       0.30023000      -0.41316000
Si       1.24824410       1.28468833       1.29003455       0.00000000       0.00000000       0.00000000      28.08500000       0.17040000      -0.24104000      -0.03686000
Si       2.54467006       0.00143462       2.54985669       0.00000000       0.00000000       0.00000000      28.08500000       0.20052000       0.19592000      -0.05589000
Si       3.78990898       1.30548887       3.85594688       0.00000000       0.00000000       0.00000000      28.08500000       0.08357000      -0.60994000      -0.16135000
Si       5.09663953       0.01212125       5.10885098       0.00000000       0.00000000       0.00000000      28.08500000      -0.19167000       0.55445000      -0.06900000
Si       6.37177016       1.27492662       6.39093779       0.00000000       0.00000000       0.00000000      28.08500000       0.45457000       0.22496000      -0.25033000
Si      -0.03995256       2.56573789       2.52828746       0.00000000       0.00000000       0.00000000      28.08500000       0.00158000      -0.36460000       0.07037000
Si       1.24756493       3.78620365       3.80910048       0.00000000       0.00000000       0.00000000      28.08500000       0.37531000       0.09212000      -0.06104000
Si       2.52187147       2.55782134       5.12481610       0.00000000       0.00000000       0.00000000      28.08500000       0.03841000       0.24485000      -0.21687000
Si       3.83889935       3.84403516       6.32651027       0.00000000       0.00000000       0.00000000      28.08500000      -0.08036000      -0.11505000      -0.12011000
Si       5.09510611       2.59990229       7.61176212       0.00000000       0.00000000       0.00000000      28.08500000      -0.02354000      -0.47564000       0.14207000
Si       6.33482280       3.86212034       8.91044613       0.00000000       0.00000000       0.00000000      28.08500000      -0.03582000      -0.61849000      -0.00375000
Si      -0.03047969       5.06051061       5.04305917       0.00000000       0.00000000       0.00000000      28.08500000      -0.04316000       0.38535000       0.02376000
Si       1.23028095       6.32472704       6.33386408       0.00000000       0.00000000       0.00000000      28.08500000       0.29066000       0.26936000      -0.01191000
Si       2.52161945       5.03618755       7.59090985       0.00000000       0.00000000       0.00000000      28.08500000       0.06879000       0.73778000       0.35031000
Si       3.80672670       6.33370515       8.88789294       0.00000000       0.00000000       0.00000000      28.08500000      -0.35644000       0.29030000      -0.52613000
Si       5.06499286       5.07907700      10.16266476       0.00000000       0.00000000       0.00000000      28.08500000      -0.31266000       0.37407000       0.29472000
Si       6.29689910       6.35654219      11.44713895       0.00000000       0.00000000       0.00000000      28.08500000       0.76306000       0.28121000      -0.47542000
Si       2.55949106       2.53137687       0.03403305       0.00000000       0.00000000       0.00000000      28.08500000      -0.15144000       0.17674000      -0.16631000
Si       3.86200401       3.80348003       1.28090422       0.00000000       0.00000000       0.00000000      28.08500000      -0.11602000      -0.02636000      -0.19443000
Si       5.09199545       2.54601449       2.59023572       0.00000000       0.00000000       0.00000000      28.08500000      -0.18161000       0.04889000       0.09757000
Si       6.34081162       3.84417278       3.83648146       0.00000000       0.00000000       0.00000000      28.08500000       0.22976000      -0.06982000      -0.18902000
Si       7.63477395       2.56528192       5.04722138       0.00000000       0.00000000       0.00000000      28.08500000       0.00734000      -0.25975000       0.91760000
Si       8.92687550       3.82041415       6.36632388       0.00000000       0.00000000       0.00000000      28.08500000      -0.30521000      -0.34389000       0.03520000
Si       2.55055907       5.03799491       2.53692130       0.00000000       0.00000000       0.00000000      28.08500000      -0.18657000       0.26346000      -0.01633000
Si       3.82366846       6.35233851       3.77406757       0.00000000       0.00000000       0.00000000      28.08500000      -0.48536000       0.25034000       0.22454000
Si       5.09914962       5.13120222       5.07986759       0.00000000       0.00000000       0.00000000      28.08500000      -0.20424000       0.20904000       0.04089000
Si       6.38151101       6.37291787       6.35485330       0.00000000       0.00000000       0.00000000      28.08500000      -0.46744000       0.26234000       0.24534000
Si       7.57713346       5.05938342       7.61586533       0.00000000       0.00000000       0.00000000      28.08500000       0.92718000       0.17252000      -0.23719000
Si       8.91123903       6.30969514       8.85868634       0.00000000       0.00000000       0.00000000      28.08500000      -0.11525000       0.25820000       0.27636000
Si       2.54952904       7.62778196       5.09127915       0.00000000       0.00000000       0.00000000      28.08500000      -0.14979000      -0.40199000      -0.10985000
Si       3.80898540       8.90150974       6.36071213       0.00000000       0.00000000       0.00000000      28.08500000       0.23183000       0.15833000      -0.16735000
Si       5.09723481       7.65212924       7.63289827       0.00000000       0.00000000       0.00000000      28.08500000      -0.11542000      -0.32371000       0.17015000
Si       6.34045246       8.92864101       8.93380184       0.00000000       0.00000000       0.00000000      28.08500000       0.38428000      -0.32591000      -0.22532000
Si       7.63984548       7.61543456      10.15245135       0.00000000       0.00000000       0.00000000      28.08500000      -0.04601000      -0.40186000       0.16312000
Si       8.90464864       8.90547731      11.43997649       0.00000000       0.00000000       0.00000000      28.08500000      -0.18319000      -0.54118000      -0.00314000
Si       5.08828193       5.09288190      -0.02429388       0.00000000       0.00000000       0.00000000      28.08500000      -0.41364000      -0.21397000      -0.08292000
Si       6.33437511       6.31985381       1.26837211       0.00000000       0.00000000       0.00000000      28.08500000       0.42029000      -0.11077000       0.10705000
Si       7.62996968       5.05717116       2.52874342       0.00000000       0.00000000       0.00000000      28.08500000      -0.13136000      -0.00286000      -0.09886000
Si       8.88481148       6.34230950       3.78983967       0.00000000       0.00000000       0.00000000      28.08500000       0.45427000      -0.23483000      -0.24569000
Si      10.16512077       5.11536114       5.09500662       0.00000000       0.00000000       0.00000000      28.08500000       0.20827000      -0.14952000      -0.13875000
Si      11.44404222       6.38419977       6.35651474       0.00000000       0.00000000       0.00000000      28.08500000      -0.19926000      -0.03693000       0.10607000
Si       5.12777619       7.61050627       2.53348101       0.00000000       0.00000000       0.00000000      28.08500000      -0.71582000       0.39351000      -0.22611000
Si       6.38651557       8.85204649       3.81182278       0.00000000       0.00000000       0.00000000      28.08500000      -0.02979000       0.44078000       0.09906000
Si       7.65729827       7.58630525       5.06943298       0.00000000       0.00000000       0.00000000      28.08500000      -0.05070000       0.37692000       0.10048000
Si       8.86433925       8.90813893       6.33757695       0.00000000       0.00000000       0.00000000      28.08500000       0.18382000      -0.38001000       0.18400000
Si      10.15503705       7.65266415       7.61121229       0.00000000       0.00000000       0.00000000      28.08500000       0.29731000       0.22210000       0.52896000
Si      11.47087503       8.93942714       8.90805045       0.00000000       0.00000000       0.00000000      28.08500000      -0.11979000      -0.49637000      -0.25316000
Si       5.14130683      10.15648925       5.09290344       0.00000000       0.00000000       0.00000000      28.08500000      -0.80313000      -0.26628000      -0.37787000
Si       6.35668454      11.44432768       6.35158945       0.00000000       0.00000000       0.00000000      28.08500000       0.36208000      -0.01449000       0.32464000
Si       7.63139534      10.16222570       7.62443916       0.00000000       0.00000000       0.00000000      28.08500000      -0.47626000       0.15953000       0.27862000
Si       8.91167445      11.41215604       8.90273516       0.00000000       0.00000000       0.00000000      28.08500000       0.00050000      -0.03714000      -0.07086000
Si      10.17254917      10.16709264      10.19463808       0.00000000       0.00000000       0.00000000      28.08500000       0.37922000       0.12178000      -0.01604000
Si      11.45235540      11.45376409      11.45617672       0.00000000       0.00000000       0.00000000      28.08500000      -0.05749000      -0.40267000       0.44013000
64
Lattice="11.3 0.0 0.0 0.0 11.3 0.0 0.0 0.0 11.3" Properties=species:S:1:pos:R:3:momenta:R:3:masses:R:1:forces:R:3 config_type=liq energy=-10389.448986 pbc="T T T"
Si       0.60169110      -0.31775600       3.73799480       0.00000000       0.00000000       0.00000000      28.08500000       0.03390000       0.43451000      -0.62331000
Si      -1.28227880      -1.85698550       0.62835910       0.00000000       0.00000000       0.00000000      28.08500000      -0.84431000       1.03167000      -0.48340000
Si       5.63587500       4.09550420      -3.81700440       0.00000000       0.00000000       0.00000000      28.08500000       0.37375000       0.08645000       0.46021000
Si      -0.98819630       4.36598100       1.48506860       0.00000000       0.00000000       0.00000000      28.08500000       1.43100000       1.79335000      -0.11422000
Si       3.13824730      -1.43516780       3.26777920       0.00000000       0.00000000       0.00000000      28.08500000      -0.86887000      -1.42550000      -0.11446000
Si       0.82851600       1.60069020      -0.88228140       0.00000000       0.00000000       0.00000000      28.08500000       0.58468000       0.10665000      -1.21395000
Si      -4.49228110      -4.50645130       4.43645910       0.00000000       0.00000000       0.00000000      28.08500000       0.80353000       0.89949000       0.47432000
Si       3.45986790       3.08094500      -0.94630720       0.00000000       0.00000000       0.00000000      28.08500000       1.26355000      -4.12634000       0.11810000
Si       2.29238580       1.47307930      -4.59053460       0.00000000       0.00000000       0.00000000      28.08500000      -1.10482000      -0.07032000      -0.76444000
Si      -2.14675140       1.04973610      -3.25520230       0.00000000       0.00000000       0.00000000      28.08500000       0.50907000       0.27935000      -0.27204000
Si       2.75323370      -5.38093570      -3.33036990       0.00000000       0.00000000       0.00000000      28.08500000      -0.71787000       0.62533000       0.07016000
Si      -0.96889590       3.95700010      -0.99767700       0.00000000       0.00000000       0.00000000      28.08500000       0.25425000      -0.00214000      -0.33627000
Si       5.54023180      -2.19294580       3.81393080       0.00000000       0.00000000       0.00000000      28.08500000       0.21102000       0.02054000      -0.04318000
Si      -3.31899080      -4.40949730      -2.67330880       0.00000000       0.00000000       0.00000000      28.08500000      -0.57578000       0.12030000      -2.58666000
Si      -4.87140740      -2.23212290      -5.04904340       0.00000000       0.00000000       0.00000000      28.08500000      -0.72227000      -0.19008000      -0.56288000
Si       0.09733820       0.55038910       1.02163300       0.00000000       0.00000000       0.00000000      28.08500000      -0.30118000      -0.27953000       1.28503000
Si      -1.66184580      -4.32699600      -4.59332570       0.00000000       0.00000000       0.00000000      28.08500000       0.81687000       0.18959000       0.09340000
Si       5.36217770       3.15569450       0.69118710       0.00000000       0.00000000       0.00000000      28.08500000      -0.08174000      -0.06235000      -0.70274000
Si      -3.10606490       5.26807130       1.77545600       0.00000000       0.00000000       0.00000000      28.08500000      -0.82762000       0.68486000      -0.21184000
Si       0.26649920       4.30794420      -4.89730700       0.00000000       0.00000000       0.00000000      28.08500000      -0.66077000      -1.43134000       0.13967000
Si       2.67520720       3.93654710      -4.47654020       0.00000000       0.00000000       0.00000000      28.08500000       0.44280000      -0.55206000      -0.93807000
Si      -5.60204280      -4.78680430      -4.20596170       0.00000000       0.00000000       0.00000000      28.08500000       0.58806000       0.06389000      -1.05747000
Si      -1.03929490       2.02208980       3.79083360       0.00000000       0.00000000       0.00000000      28.08500000       1.34588000      -0.12900000       0.90532000
Si       4.04902730      -5.45486030       5.32323790       0.00000000       0.00000000       0.00000000      28.08500000      -0.19366000      -0.48658000       0.04693000
Si      -2.56495310       2.00672180      -0.67039510       0.00000000       0.00000000       0.00000000      28.08500000      -0.64645000       0.91071000      -0.17515000
Si       5.49537080       1.23756470       2.36463800       0.00000000       0.00000000       0.00000000      28.08500000       0.78093000       1.18938000       0.13882000
Si      -1.68069420       2.36185820       1.53256250       0.00000000       0.00000000       0.00000000      28.08500000      -0.88875000      -3.05336000       0.16458000
Si      -4.56743740       3.90526870      -1.52370330       0.00000000       0.00000000       0.00000000      28.08500000       0.38775000      -0.30294000       0.45507000
Si      -1.94940820       0.43480140       5.54785930       0.00000000       0.00000000       0.00000000      28.08500000       1.24791000      -0.95784000       0.19107000
Si       4.10114290       5.22852130       1.20784570       0.00000000       0.00000000       0.00000000      28.08500000      -0.10499000      -0.67971000       0.06028000
Si       0.73358470      -0.35848120      -5.19015780       0.00000000       0.00000000       0.00000000      28.08500000      -0.99745000       1.66832000      -0.52287000
Si       4.72233780       2.01173900      -4.61654720       0.00000000       0.00000000       0.00000000      28.08500000      -0.24068000       1.15978000       0.63472000
Si      -1.71652650      -1.13568390       3.57503750       0.00000000       0.00000000       0.00000000      28.08500000      -0.45087000      -0.22204000       0.25522000
Si       4.14671580      -0.98691940      -5.02184430       0.00000000       0.00000000       0.00000000      28.08500000      -0.02654000      -0.96505000       0.16643000
Si       5.10432300      -4.78899650       2.85756660       0.00000000       0.00000000       0.00000000      28.08500000       0.32636000      -0.01330000       0.85930000
Si       5.44742490      -0.82696790       1.33088010       0.00000000       0.00000000       0.00000000      28.08500000       0.25730000      -1.17614000      -0.69626000
Si      -3.50043490      -1.88157430       1.82706310       0.00000000       0.00000000       0.00000000      28.08500000       0.15410000       0.13511000       0.45641000
Si      -1.84675900      -3.55549980       4.20162250       0.00000000       0.00000000       0.00000000      28.08500000      -1.21833000       0.22968000       1.32214000
Si       1.21956380       3.61605650       0.84998600       0.00000000       0.00000000       0.00000000      28.08500000       0.31745000       0.45869000      -0.44403000
Si      -3.20457830       1.16545940       3.55614390       0.00000000       0.00000000       0.00000000      28.08500000      -1.57815000      -0.06249000      -0.71251000
Si       2.19535270      -0.27304190      -2.08388950       0.00000000       0.00000000       0.00000000      28.08500000      -0.31495000      -0.84091000       0.30602000
Si       0.40270940      -3.39229390       0.30563110       0.00000000       0.00000000       0.00000000      28.08500000       0.90758000      -0.68320000       0.81987000
Si       1.12072270      -4.50740050      -1.70126020       0.00000000       0.00000000       0.00000000      28.08500000      -0.36830000      -0.09503000       0.21631000
Si      -3.68972120       1.99486810      -5.36789550       0.00000000       0.00000000       0.00000000      28.08500000      -0.30969000       0.49730000      -0.01053000
Si       0.19325260       2.20606510      -3.39306230       0.00000000       0.00000000       0.00000000      28.08500000      -0.44731000       0.21315000       0.27714000
Si       1.02922660      -4.86116960      -4.99093880       0.00000000       0.00000000       0.00000000      28.08500000       0.21060000       1.70171000      -0.07009000
Si       2.77616140       5.01108670      -0.80866190       0.00000000       0.00000000       0.00000000      28.08500000      -1.49512000       4.39108000      -0.05744000
Si      -0.08038820      -2.95107410      -3.11364720       0.00000000       0.00000000       0.00000000      28.08500000       0.20197000      -0.46633000      -0.66456000
Si       2.52751620      -1.51821150       0.91649780       0.00000000       0.00000000       0.00000000      28.08500000       0.10783000      -0.38307000      -0.68419000
Si      -1.26013080       0.07017300      -1.05814330       0.00000000       0.00000000       0.00000000      28.08500000       0.06721000      -0.55992000      -0.33052000
Si      -2.82376830       5.58962410      -0.80460520       0.00000000       0.00000000       0.00000000      28.08500000      -0.34045000      -2.95992000       0.74308000
Si      -2.39137380       3.64397880      -3.14677880       0.00000000       0.00000000       0.00000000      28.08500000      -0.03671000      -0.50044000       0.07915000
Si       3.70636610       0.61494600       3.84777430       0.00000000       0.00000000       0.00000000      28.08500000       0.17429000       1.90939000       0.60160000
Si       3.37274490      -3.58152370       1.89722480       0.00000000       0.00000000       0.00000000      28.08500000      -0.97074000      -0.14884000       0.00703000
Si      -2.74271340      -3.52783740      -0.66629320       0.00000000       0.00000000       0.00000000      28.08500000       2.32576000       2.19184000       1.73595000
Si       5.35122800      -1.37540210      -1.44799330       0.00000000       0.00000000       0.00000000      28.08500000      -1.13071000       1.61346000       0.43113000
Si       1.57224810      -5.55651510       2.38574640       0.00000000       0.00000000       0.00000000      28.08500000       0.16498000       0.42685000      -0.23273000
Si      -1.05834670      -4.81525770       2.47986410       0.00000000       0.00000000       0.00000000      28.08500000       0.89368000       0.15059000      -1.04673000
Si       5.05548440       3.89826270       3.17158230       0.00000000       0.00000000       0.00000000      28.08500000      -0.31744000       0.43759000      -0.19660000
Si       4.59926950      -4.66331790      -2.15479700       0.00000000       0.00000000       0.00000000      28.08500000       0.42647000       0.07869000       1.25809000
Si      -5.62912890       0.54964330       5.26185630       0.00000000       0.00000000       0.00000000      28.08500000       0.92227000      -0.71347000      -0.57605000
Si       1.91815240      -2.12782390      -4.60261430       0.00000000       0.00000000       0.00000000      28.08500000       0.51936000      -1.20953000       1.03533000
Si       3.55879940       1.43813970      -2.67490210       0.00000000       0.00000000       0.00000000      28.08500000       1.06011000       0.30660000       0.94630000
Si      -4.86130520      -3.22191250      -1.04198430       0.00000000       0.00000000       0.00000000      28.08500000      -1.32975000      -1.25716000      -0.30898000
128
Lattice="10.338953 10.338991 -0.001025 -0.000233 10.338199 10.338234 10.33958 -0.001652 10.339653" Properties=species:S:1:pos:R:3:momenta:R:3:masses:R:1:forces:R:3 config_type=dia energy=-20863.36547 virial="284.51489491 0.63074093 -2.02098148 0.63074093 284.2025461 3.60162815 -2.02098148 3.60162815 284.20188382" pbc="T T T"
Si      -0.04282456      -0.03738314      -0.02053056       0.00000000       0.00000000       0.00000000      28.08500000       0.40873000       0.21245000       0.26133000
Si       1.24151101       1.33332818       1.24372328       0.00000000       0.00000000       0.00000000      28.08500000       0.31426000      -0.54262000       0.04991000
Si       2.54771273       0.05131481       2.60063274       0.00000000       0.00000000       0.00000000      28.08500000       0.39425000       0.19639000      -0.96429000
Si       3.89056032       1.36307450       3.81260803       0.00000000       0.00000000       0.00000000      28.08500000       0.33654000      -0.27413000      -0.10135000
Si       5.11912447       0.07002973       5.19038234       0.00000000       0.00000000       0.00000000      28.08500000      -0.37037000      -0.09500000      -0.36077000
Si       6.46348588       1.29588515       6.43865930       0.00000000       0.00000000       0.00000000      28.08500000       0.21437000       0.21635000      -0.15052000
Si       7.72293112       0.03346262       7.74457136       0.00000000       0.00000000       0.00000000      28.08500000       0.30494000      -0.64519000      -0.10797000
Si       9.00296214       1.26585612       9.07282202       0.00000000       0.00000000       0.00000000      28.08500000       0.31154000       0.45466000      -0.32874000
Si       0.08533463       2.61558802       2.64766850       0.00000000       0.00000000       0.00000000      28.08500000      -0.49469000       0.29096000      -0.24668000
Si       1.38183184       3.93581910       3.93459262       0.00000000       0.00000000       0.00000000      28.08500000      -0.28892000      -0.28310000      -0.56558000
Si       2.60064674       2.55272640       5.15705808       0.00000000       0.00000000       0.00000000      28.08500000       0.22542000       0.35781000       0.35933000
Si       3.88905994       3.85266850       6.47254202       0.00000000       0.00000000       0.00000000      28.08500000      -0.08457000      -0.47298000       0.16239000
Si       5.17488405       2.50821385       7.76199352       0.00000000       0.00000000       0.00000000      28.08500000      -0.55348000       0.41263000       0.26204000
Si       6.42622687       3.87021129       9.01880336       0.00000000       0.00000000       0.00000000      28.08500000       0.20120000       0.10151000      -0.03765000
Si       7.73102076       2.60562576      10.32609168       0.00000000       0.00000000       0.00000000      28.08500000      -0.32416000      -0.37662000       0.14648000
Si       9.06418579       3.81973182      11.61034079       0.00000000       0.00000000       0.00000000      28.08500000       0.29034000      -0.07331000       0.82400000
Si       0.02159694       5.15284465       5.17232457       0.00000000       0.00000000       0.00000000      28.08500000      -0.72727000       0.66589000      -0.19273000
Si       1.29921290       6.49001769       6.41524161       0.00000000       0.00000000       0.00000000      28.08500000       0.29554000       0.17331000      -0.14881000
Si       2.57166696       5.17256045       7.69939586       0.00000000       0.00000000       0.00000000      28.08500000      -0.53229000      -0.47788000       0.29841000
Si       3.89698349       6.40273580       8.97089437       0.00000000       0.00000000       0.00000000      28.08500000      -0.32973000       0.74205000       0.39840000
Si       5.11610549       5.14469556      10.30470099       0.00000000       0.00000000       0.00000000      28.08500000       0.20238000      -0.39030000       0.49060000
Si       6.49511601       6.34775588      11.60013957       0.00000000       0.00000000       0.00000000      28.08500000      -0.63653000       0.47235000       0.41069000
Si       7.79741656       5.12985053      12.92785309       0.00000000       0.00000000       0.00000000      28.08500000      -0.28415000      -0.63769000      -0.04973000
Si       9.02842283       6.46814032      14.18642304       0.00000000       0.00000000       0.00000000      28.08500000       0.03877000       0.01457000       0.93859000
Si       0.02676839       7.77037066       7.72243854       0.00000000       0.00000000       0.00000000      28.08500000      -0.47381000      -0.26280000       0.46087000
Si       1.31209173       9.03904458       9.05402466       0.00000000       0.00000000       0.00000000      28.08500000      -0.06742000      -0.34757000       0.34041000
Si       2.67831208       7.75549776      10.32956392       0.00000000       0.00000000       0.00000000      28.08500000      -0.00551000       0.07469000      -0.36945000
Si       3.90346045       9.03916101      11.70624783       0.00000000       0.00000000       0.00000000      28.08500000      -0.27050000      -0.05163000       0.16080000
Si       5.26482111       7.73829105      12.93497199       0.00000000       0.00000000       0.00000000      28.08500000      -0.40706000      -0.59675000      -0.19282000
Si       6.40217156       9.13834700      14.23948140       0.00000000       0.00000000       0.00000000      28.08500000       0.77631000      -0.21845000      -0.15016000
Si       7.70302905       7.78838270      15.51293870       0.00000000       0.00000000       0.00000000      28.08500000       0.25185000      -0.18581000      -0.56090000
Si       9.03347269       9.04671243      16.78152859       0.00000000       0.00000000       0.00000000      28.08500000      -0.52064000      -0.26360000       0.86376000
Si       2.52777694       2.57526089      -0.10772452       0.00000000       0.00000000       0.00000000      28.08500000      -0.06136000       0.09155000       0.10165000
Si       3.86771272       3.82563758       1.17466967       0.00000000       0.00000000       0.00000000      28.08500000      -0.53069000       0.02309000       0.78104000
Si       5.22794427       2.62256656       2.50519487       0.00000000       0.00000000       0.00000000      28.08500000      -0.65079000      -0.01006000       0.05224000
Si       6.36906373       3.92893736       3.89288601       0.00000000       0.00000000       0.00000000      28.08500000       1.11034000      -0.46892000      -0.34910000
Si       7.73226616       2.59939514       5.12991618       0.00000000       0.00000000       0.00000000      28.08500000      -0.39319000       0.41663000       0.14447000
Si       8.96196335       3.88892224       6.49312717       0.00000000       0.00000000       0.00000000      28.08500000       0.64145000      -0.08844000      -0.53192000
Si      10.29201785       2.55033591       7.71736787       0.00000000       0.00000000       0.00000000      28.08500000      -0.34556000      -0.22002000       0.00241000
Si      11.61451610       3.88392628       8.90122722       0.00000000       0.00000000       0.00000000      28.08500000      -0.06266000       0.13543000       0.62172000
Si       2.59937155       5.15896457       2.52424185       0.00000000       0.00000000       0.00000000      28.08500000       0.17018000      -0.19545000      -0.37002000
Si       3.88926371       6.43489173       3.80926863       0.00000000       0.00000000       0.00000000      28.08500000       0.44267000       0.07646000       0.20616000
Si       5.14954811       5.17466054       5.20755314       0.00000000       0.00000000       0.00000000      28.08500000      -0.59562000       0.53249000      -0.07167000
Si       6.44240478       6.49543596       6.43916104       0.00000000       0.00000000       0.00000000      28.08500000       0.30201000      -0.05378000       0.16638000
Si       7.73022234       5.21220818       7.75481586       0.00000000       0.00000000       0.00000000      28.08500000      -0.43030000       0.07990000       0.35759000
Si       9.04051611       6.45810409       9.07980857       0.00000000       0.00000000       0.00000000      28.08500000       0.28010000      -0.18855000      -0.19536000
Si      10.33046520       5.10301541      10.32347830       0.00000000       0.00000000       0.00000000      28.08500000       0.66388000       0.40257000      -0.29366000
Si      11.65137091       6.47591819      11.57907845       0.00000000       0.00000000       0.00000000      28.08500000      -0.54731000      -0.74724000      -0.00639000
Si       2.65290172       7.76047846       5.11403113       0.00000000       0.00000000       0.00000000      28.08500000       0.05368000      -0.23103000       0.60140000
Si       3.90592507       9.04866799       6.50111653       0.00000000       0.00000000       0.00000000      28.08500000      -0.52775000      -0.46914000       0.01156000