64
Lattice="10.914 0.0 0.0 0.0 10.914 0.0 0.0 0.0 10.914" Properties=species:S:1:pos:R:3:momenta:R:3:masses:R:1:forces:R:3 config_type=liq energy=-10393.488669 virial="2.77054228 -5.35521711 -7.26999992 -5.35521711 -15.84736032 -5.13272305 -7.26999992 -5.13272305 6.30866916" pbc="T T T"
Si      -0.55114610       1.34966890      -5.32513710       0.00000000       0.00000000       0.00000000      28.08500000      -0.78234000      -0.74137000       0.18336000
Si       4.09028340       0.73620390       0.56469040       0.00000000       0.00000000       0.00000000      28.08500000       0.13326000       1.37202000      -0.64799000
Si       4.34674060       3.91952300       3.69901650       0.00000000       0.00000000       0.00000000      28.08500000       0.22312000      -0.77185000       1.12828000
Si      -1.47596570       3.05795000       1.94364150       0.00000000       0.00000000       0.00000000      28.08500000      -0.13381000      -0.18186000      -1.18577000
Si       3.72490450      -1.52373630       2.83110250       0.00000000       0.00000000       0.00000000      28.08500000      -0.43679000       2.87944000       0.92341000
Si       4.70183850      -3.49428080      -6.24374660       0.00000000       0.00000000       0.00000000      28.08500000       0.58434000      -0.52548000       1.99549000
Si      -4.78511230       2.55102740      -1.50851120       0.00000000       0.00000000       0.00000000      28.08500000      -1.09387000       0.58878000       1.24743000
Si       3.82026020      -3.76987020      -0.04452910       0.00000000       0.00000000       0.00000000      28.08500000       0.00084000       0.66886000      -0.27665000
Si       4.11050710       0.38391090      -5.19606810       0.00000000       0.00000000       0.00000000      28.08500000       1.61547000      -2.50533000       3.61504000
Si      -2.87898220       5.26250160      -1.96766320       0.00000000       0.00000000       0.00000000      28.08500000       0.68357000      -1.36720000      -1.02801000
Si       4.13683170       3.08372890      -2.99709350       0.00000000       0.00000000       0.00000000      28.08500000       0.50548000       0.19842000       0.63001000
Si       3.19648140      -1.99808060       5.34319970       0.00000000       0.00000000       0.00000000      28.08500000      -0.08379000       1.39858000      -0.29075000
Si      -1.34628560      -1.51175270      -3.33857080       0.00000000       0.00000000       0.00000000      28.08500000      -2.51217000      -3.10797000      -0.21558000
Si       4.93089060      -1.33885310       0.81272190       0.00000000       0.00000000       0.00000000      28.08500000       0.26890000      -1.78954000      -0.11155000
Si       2.14504850       2.60924270       2.11911680       0.00000000       0.00000000       0.00000000      28.08500000       0.63443000      -0.64717000       0.41022000
Si      -3.58380830       1.51317150      -3.04451490       0.00000000       0.00000000       0.00000000      28.08500000       1.03134000      -0.51049000      -1.48894000
Si       1.27781110      -1.74809540      -4.32991120       0.00000000       0.00000000       0.00000000      28.08500000      -0.69617000      -0.99027000       0.33167000
Si      -0.68369660      -2.94759850      -5.35208370       0.00000000       0.00000000       0.00000000      28.08500000       0.05805000       0.15740000      -0.05350000
Si      -5.38293760       5.51659040       1.01519840       0.00000000       0.00000000       0.00000000      28.08500000      -0.01740000      -0.37032000       0.96792000
Si       2.45008390       4.73885880      -1.69241220       0.00000000       0.00000000       0.00000000      28.08500000       1.43129000      -0.92828000      -0.24843000
Si      -2.07336530      -0.68809500       4.89527820       0.00000000       0.00000000       0.00000000      28.08500000       0.12498000       0.30706000      -0.40680000
Si       4.28361400       0.41499390      -2.21777940       0.00000000       0.00000000       0.00000000      28.08500000       0.57495000       1.14444000       0.75269000
Si       1.99960850       1.57264190       5.46913640       0.00000000       0.00000000       0.00000000      28.08500000      -0.74793000       0.10689000      -0.16533000
Si      -4.22675210       3.93199770      -3.66202900       0.00000000       0.00000000       0.00000000      28.08500000      -0.29899000       0.24354000       0.21004000
Si       2.08174730      -5.36835650      -3.89342760       0.00000000       0.00000000       0.00000000      28.08500000       0.23264000      -0.40471000      -1.18588000
Si      -3.82082770       1.17538320       3.81773900       0.00000000       0.00000000       0.00000000      28.08500000      -0.28223000       0.29818000       0.15535000
Si       3.88054910       1.10968090       3.78886060       0.00000000       0.00000000       0.00000000      28.08500000      -0.65354000       1.35457000      -4.08836000
Si      -4.77058580      -4.04455380      -4.54133720       0.00000000       0.00000000       0.00000000      28.08500000       0.22769000      -0.81842000       0.65009000
Si      -3.60475230      -2.55808880       0.76942610       0.00000000       0.00000000       0.00000000      28.08500000      -0.03453000       0.60925000       0.61444000
Si      -2.92505020       4.65076100       3.10967150       0.00000000       0.00000000       0.00000000      28.08500000      -0.94326000       0.36217000      -0.14670000
Si       0.42196800      -2.34441450      -1.74303130       0.00000000       0.00000000       0.00000000      28.08500000      -0.07492000       0.31175000       0.09161000
Si      -3.84773070      -1.25433510      -2.75879730       0.00000000       0.00000000       0.00000000      28.08500000       1.98797000      -1.30686000      -4.61043000
Si      -4.42962150      -0.72936080      -0.88373930       0.00000000       0.00000000       0.00000000      28.08500000      -0.27366000       1.98276000       4.35762000
Si      -2.49341240       0.64866270       0.42025450       0.00000000       0.00000000       0.00000000      28.08500000       0.89588000       1.43999000      -2.92710000
Si       3.83934880      -3.66522680       2.65650030       0.00000000       0.00000000       0.00000000      28.08500000      -1.56879000      -2.34422000      -1.92719000
Si      -4.30256070      -4.42173070      -0.75834840       0.00000000       0.00000000       0.00000000      28.08500000      -1.53188000       0.04745000       0.49967000
Si      -0.52822670      -0.88981840       0.34987010       0.00000000       0.00000000       0.00000000      28.08500000       1.10636000       0.02624000      -0.59560000
Si      -5.42883100      -3.08604260      -2.33646910       0.00000000       0.00000000       0.00000000      28.08500000      -0.20337000       0.10525000      -0.71418000
Si       3.74196310       3.95019130       0.09071720       0.00000000       0.00000000       0.00000000      28.08500000       0.78681000      -0.34507000      -0.02631000
Si      -4.45994060      -0.36376360      -5.01439360       0.00000000       0.00000000       0.00000000      28.08500000       0.63689000       0.60347000       0.28146000
Si       3.35758300      -1.78191790      -2.28995370       0.00000000       0.00000000       0.00000000      28.08500000      -0.32820000      -1.08160000       0.28026000
Si       0.71847950      -4.77265950      -1.33859120       0.00000000       0.00000000       0.00000000      28.08500000      -1.70739000       0.39132000       0.25067000
Si      -0.13711260       0.20739870      -3.13966310       0.00000000       0.00000000       0.00000000      28.08500000       1.72943000       3.15128000       0.45456000
Si       0.07914830       2.65031210      -2.65168730       0.00000000       0.00000000       0.00000000      28.08500000      -0.63097000       0.29775000       0.71383000
Si      -2.33309670       3.06687770      -1.02196510       0.00000000       0.00000000       0.00000000      28.08500000       0.41681000      -0.59328000      -0.24248000
Si       1.80640890       0.40477840       0.42496930       0.00000000       0.00000000       0.00000000      28.08500000      -1.30848000       0.60045000       0.23914000
Si      -0.29991670       5.06326650      -3.61813290       0.00000000       0.00000000       0.00000000      28.08500000      -0.01712000      -0.30897000       1.70272000
Si      -0.02336690      -6.21224880      -5.84177310       0.00000000       0.00000000       0.00000000      28.08500000       0.68042000       0.35987000      -0.59018000
Si      -0.09046610       4.59515420       0.71931990       0.00000000       0.00000000       0.00000000      28.08500000       0.56857000       0.03826000      -0.29630000
Si       1.37522950      -4.25291290       4.90216500       0.00000000       0.00000000       0.00000000      28.08500000      -0.17399000       0.23599000      -0.62501000
Si       1.16812540      -4.64833810       2.11881120       0.00000000       0.00000000       0.00000000      28.08500000      -0.45633000      -0.19828000       0.22132000
Si      -5.40401250       2.77944650       1.98465630       0.00000000       0.00000000       0.00000000      28.08500000       0.55344000      -0.34925000      -0.03892000
Si       0.45963220       2.32881840       3.66877380       0.00000000       0.00000000       0.00000000      28.08500000       0.43133000       0.09424000      -0.60013000
Si       3.18930000       5.04000880       2.11433650       0.00000000       0.00000000       0.00000000      28.08500000      -0.91864000       0.15705000      -0.39880000
Si      -2.21708090      -3.49157410      -1.15972160       0.00000000       0.00000000       0.00000000      28.08500000       1.68818000       0.91259000       0.09799000
Si       2.31135600       0.14251500      -3.48773240       0.00000000       0.00000000       0.00000000      28.08500000      -0.56912000       1.13443000       0.08889000
Si      -4.79682310      -3.65950790       2.81150100       0.00000000       0.00000000       0.00000000      28.08500000       0.21380000       0.43818000      -3.27108000
Si      -2.95089460      -0.30068070       2.24416940       0.00000000       0.00000000       0.00000000      28.08500000      -0.66913000      -1.97546000       3.00487000
Si      -1.57049190       3.20503800      -6.61655790       0.00000000       0.00000000       0.00000000      28.08500000      -1.41505000      -0.60332000       1.43008000
Si      -3.42439850      -4.07378150       4.39434750       0.00000000       0.00000000       0.00000000      28.08500000       1.54417000      -1.16182000       1.71054000
Si      -0.46918200      -3.12668640       1.29202120       0.00000000       0.00000000       0.00000000      28.08500000      -0.19399000       0.12499000      -1.01950000
Si       3.19480060       3.51180870      -5.13127170       0.00000000       0.00000000       0.00000000      28.08500000       0.02291000       1.03498000       0.16798000
Si      -1.66820490      -3.18994390       3.23143890       0.00000000       0.00000000       0.00000000      28.08500000       0.07740000       0.87383000       1.21446000
Si       1.51676220       2.85558260      -0.13626130       0.00000000       0.00000000       0.00000000      28.08500000      -0.91292000      -0.12332000      -1.19963000
2
Lattice="3.742817 0.0 0.0 1.551552 3.053202 0.0 1.381957 0.902012 2.996238" Properties=species:S:1:pos:R:3:momenta:R:3:masses:R:1:forces:R:3 config_type=dia energy=-325.681274 virial="2.59815974 1.33815125 1.70873114 1.33815125 6.81748562 -0.34460217 1.70873114 -0.34460217 3.49884608" pbc="T T T"
Si       0.00000000       0.00000000       0.00000000       0.00000000       0.00000000       0.00000000      28.08500000      -0.22041000       1.42300000      -0.78522000
Si       1.82656071       1.05456532       0.74568873       0.00000000       0.00000000       0.00000000      28.08500000       0.22041000      -1.42300000       0.78522000
216
Lattice="16.370058 0.114936 0.017607 0.114771 16.476847 0.091907 0.017436 0.091625 16.298915" Properties=species:S:1:pos:R:3:momenta:R:3:masses:R:1:forces:R:3 config_type=amorph energy=-35213.93308179 pbc="T T T"
Si      34.65030012      -0.84918012      25.43630897       0.00000000       0.00000000       0.00000000      28.08500000       0.00848000      -0.00589000      -0.00065000
Si      33.13410754      10.44613004      24.65783737       0.00000000       0.00000000       0.00000000      28.08500000       0.00036000       0.00038000       0.01134000
Si      38.09390968      -2.13331959      22.03354931       0.00000000       0.00000000       0.00000000      28.08500000       0.00542000      -0.00345000      -0.00907000
Si      38.71938488      -0.91316824      13.24439695       0.00000000       0.00000000       0.00000000      28.08500000       0.00521000       0.00339000      -0.00709000
Si      27.59839893       8.33088407      20.47845824       0.00000000       0.00000000       0.00000000      28.08500000       0.00027000       0.00105000      -0.00793000
Si      27.88651376       9.35089530      26.01042331       0.00000000       0.00000000       0.00000000      28.08500000       0.00652000      -0.00694000      -0.00822000
Si      33.60026117      11.24804318      14.64319166       0.00000000       0.00000000       0.00000000      28.08500000       0.01001000       0.00141000      -0.00324000
Si      28.19926945       1.08465204      16.16211539       0.00000000       0.00000000       0.00000000      28.08500000       0.01058000      -0.00053000      -0.01148000
Si      41.75601587      11.26854126      23.47234786       0.00000000       0.00000000       0.00000000      28.08500000      -0.00417000       0.00021000      -0.00335000
Si      31.86385791       7.80281385      13.57317018       0.00000000       0.00000000       0.00000000      28.08500000       0.00461000       0.00366000      -0.00734000
Si      43.10319849       0.45514139      17.99706284       0.00000000       0.00000000       0.00000000      28.08500000       0.00256000       0.00158000       0.00546000
Si      43.29902445       4.55306008      26.04478407       0.00000000       0.00000000       0.00000000      28.08500000      -0.01654000       0.00689000      -0.00202000
Si      35.90599882      -1.65455895      21.13695070       0.00000000       0.00000000       0.00000000      28.08500000       0.00032000      -0.00890000      -0.00797000
Si      40.65994239       8.65858727      15.21906049       0.00000000       0.00000000       0.00000000      28.08500000      -0.00200000       0.00478000       0.00105000
Si      40.47928297       2.45263427      13.37853813       0.00000000       0.00000000       0.00000000      28.08500000      -0.00865000       0.00132000      -0.00341000
Si      31.91899257       8.93721553      26.02297371       0.00000000       0.00000000       0.00000000      28.08500000       0.00844000       0.00870000       0.01148000
Si      27.40302885       6.42424154      14.54577860       0.00000000       0.00000000       0.00000000      28.08500000       0.00925000       0.01307000      -0.00387000
Si      42.09476068       3.67768427      14.45819947       0.00000000       0.00000000       0.00000000      28.08500000       0.00113000      -0.00327000       0.00512000
Si      31.09241866      -2.81155182      14.10721927       0.00000000       0.00000000       0.00000000      28.08500000       0.00209000       0.00175000       0.00000000
Si      37.76481125       1.92431292      15.98381570       0.00000000       0.00000000       0.00000000      28.08500000      -0.00740000       0.00557000      -0.00043000
Si      39.28084609       5.17123466      15.60801066       0.00000000       0.00000000       0.00000000      28.08500000       0.00303000      -0.00710000      -0.00804000
Si      37.28751164       1.99280182      23.71158250       0.00000000       0.00000000       0.00000000      28.08500000      -0.00292000      -0.00062000       0.00388000
Si      35.09690385      -2.92112452      24.42066226       0.00000000       0.00000000       0.00000000      28.08500000      -0.00583000       0.00316000       0.00990000
Si      35.02800411      -0.55318229      17.54515487       0.00000000       0.00000000       0.00000000      28.08500000       0.00214000       0.00118000      -0.00881000
Si      41.11453962       9.89294220      11.59163954       0.00000000       0.00000000       0.00000000      28.08500000      -0.00270000       0.00602000      -0.00105000
Si      37.96274258      -4.50104146      22.18729819       0.00000000       0.00000000       0.00000000      28.08500000      -0.00979000       0.00414000       0.01104000
Si      35.76244426      10.93867108      21.81763963       0.00000000       0.00000000       0.00000000      28.08500000       0.00166000       0.01126000       0.00760000
Si      39.62225272      -1.33456321      20.44775220       0.00000000       0.00000000       0.00000000      28.08500000       0.00107000      -0.00510000      -0.00175000
Si      41.21807267       3.81663356      18.68112350       0.00000000       0.00000000       0.00000000      28.08500000      -0.00668000       0.00536000       0.00545000
Si      35.03790983       9.59552696      23.67795121       0.00000000       0.00000000       0.00000000      28.08500000       0.00888000      -0.00870000      -0.00251000
Si      38.52900207       3.37780009      14.27759291       0.00000000       0.00000000       0.00000000      28.08500000      -0.00042000       0.00331000      -0.00400000
Si      36.20910254      -1.58115722      27.06839583       0.00000000       0.00000000       0.00000000      28.08500000       0.00216000       0.00109000       0.00036000
Si      36.02727652       1.99916867      11.89950673       0.00000000       0.00000000       0.00000000      28.08500000       0.00010000      -0.00897000      -0.00490000
Si      43.57946266       2.71768188      21.04790263       0.00000000       0.00000000       0.00000000      28.08500000       0.00537000       0.00403000      -0.00514000
Si      35.15787715       6.85664092      18.91858582       0.00000000       0.00000000       0.00000000      28.08500000      -0.00658000      -0.00193000      -0.00746000
Si      29.81066474       1.59593268      23.96145116       0.00000000       0.00000000       0.00000000      28.08500000      -0.00181000       0.00206000      -0.01305000
Si      38.39449632      -2.31651554      18.71069130       0.00000000       0.00000000       0.00000000      28.08500000      -0.00431000       0.00634000       0.00104000
Si      39.27252296      11.48399700      11.75631321       0.00000000       0.00000000       0.00000000      28.08500000       0.00249000      -0.01013000      -0.00286000
Si      28.23621483      -3.44656132      24.16016714       0.00000000       0.00000000       0.00000000      28.08500000       0.00571000      -0.00906000       0.00663000
Si      33.20146626       8.10200211      11.58056730       0.00000000       0.00000000       0.00000000      28.08500000      -0.00346000      -0.00604000       0.00997000
Si      34.72051720      -3.84316720      15.91552714       0.00000000       0.00000000       0.00000000      28.08500000       0.00279000       0.01156000      -0.00703000
Si      39.47826537       4.35050095      20.34642477       0.00000000       0.00000000       0.00000000      28.08500000      -0.00058000       0.01027000      -0.00476000
Si      35.68960870       6.05146813      22.31625519       0.00000000       0.00000000       0.00000000      28.08500000      -0.00078000       0.00501000       0.01132000
Si      27.64544562      -4.98901812      16.11745492       0.00000000       0.00000000       0.00000000      28.08500000       0.00131000      -0.00176000      -0.00588000
Si      32.31906477      -3.36960868      21.67241303       0.00000000       0.00000000       0.00000000      28.08500000       0.00389000      -0.00022000       0.00624000
Si      39.88579406      -2.75638567      12.24151110       0.00000000       0.00000000       0.00000000      28.08500000      -0.00183000      -0.00470000      -0.00365000
Si      29.22420994       6.71651425      23.80586516       0.00000000       0.00000000       0.00000000      28.08500000      -0.00662000       0.00058000       0.00925000
Si      30.52595622      10.53960343      19.76271625       0.00000000       0.00000000       0.00000000      28.08500000       0.00719000      -0.00159000       0.00023000
Si      30.10457238       5.18338840      22.28688761       0.00000000       0.00000000       0.00000000      28.08500000       0.00387000       0.00738000       0.00267000
Si      33.92157917       1.03399011      18.85479753       0.00000000       0.00000000       0.00000000      28.08500000      -0.00294000      -0.00401000      -0.00046000
Si      37.25902616      -2.90730557      25.43064422       0.00000000       0.00000000       0.00000000      28.08500000      -0.00264000      -0.00408000      -0.00296000
Si      27.26693491       1.03233998      10.61505457       0.00000000       0.00000000       0.00000000      28.08500000      -0.00581000       0.00358000       0.00143000
Si      28.02302973      -1.05256331      15.18024028       0.00000000       0.00000000       0.00000000      28.08500000       0.00875000       0.00258000       0.00644000
Si      41.23817411      -1.97117570      24.84121320       0.00000000       0.00000000       0.00000000      28.08500000      -0.00241000      -0.00069000       0.00056000
Si      37.12706159       3.15760059      17.84818776       0.00000000       0.00000000       0.00000000      28.08500000       0.00816000      -0.00150000       0.00267000
Si      32.67488463       4.20426905      12.45820743       0.00000000       0.00000000       0.00000000      28.08500000       0.00045000       0.00967000       0.00525000
Si      33.46415477      -1.96506501      16.61516853       0.00000000       0.00000000       0.00000000      28.08500000      -0.00035000       0.00031000       0.00624000
Si      29.12399051       4.78065457      14.52504164       0.00000000       0.00000000       0.00000000      28.08500000      -0.00528000       0.00168000      -0.00176000
Si      34.98216296       5.96466096      15.21534713       0.00000000       0.00000000       0.00000000      28.08500000      -0.00347000      -0.00257000       0.00119000
Si      42.76524081      -0.69454221      11.67453653       0.00000000       0.00000000       0.00000000      28.08500000      -0.00084000       0.00137000      -0.00502000
Si      41.31954302       2.34304726      21.87956428       0.00000000       0.00000000       0.00000000      28.08500000      -0.00526000       0.00638000      -0.00248000
Si      27.91808318       0.50739359      20.04882118       0.00000000       0.00000000       0.00000000      28.08500000       0.00756000      -0.00314000       0.00113000
Si      34.90938548       0.49814349      21.01652859       0.00000000       0.00000000       0.00000000      28.08500000      -0.00641000      -0.01421000      -0.00051000
Si      39.39656877      10.95081178      23.99673800       0.00000000       0.00000000       0.00000000      28.08500000       0.00014000       0.00588000      -0.00239000
Si      29.88779565       6.06352135      11.05557234       0.00000000       0.00000000       0.00000000      28.08500000      -0.00096000       0.00143000       0.00739000
Si      29.14444742      -1.93816399      25.71293595       0.00000000       0.00000000       0.00000000      28.08500000       0.00860000      -0.00654000      -0.00360000
Si      35.00779644       9.69865291      11.44072059       0.00000000       0.00000000       0.00000000      28.08500000      -0.00642000       0.00175000      -0.01078000
Si      40.81965877      -2.72441753      16.28175583       0.00000000       0.00000000       0.00000000      28.08500000       0.00237000      -0.00096000       0.00141000
Si      40.46389686      11.55664448      16.97170876       0.00000000       0.00000000       0.00000000      28.08500000       0.01023000      -0.00196000      -0.01933000
Si      38.28024485       4.08532643      24.38764523       0.00000000       0.00000000       0.00000000      28.08500000      -0.00255000      -0.00545000       0.00256000
Si      31.01412790       6.89842392      25.41138663       0.00000000       0.00000000       0.00000000      28.08500000       0.00765000      -0.00979000       0.00479000
Si      37.21288576      10.48533611      18.47430741       0.00000000       0.00000000       0.00000000      28.08500000       0.00239000       0.00269000      -0.00190000
Si      25.39647829      -4.57432400      21.11787690       0.00000000       0.00000000       0.00000000      28.08500000       0.01702000       0.01229000      -0.00042000
Si      27.98395930      -2.74662464      16.85518458       0.00000000       0.00000000       0.00000000      28.08500000      -0.00719000       0.00750000       0.00319000
Si      40.15365828       4.32601938      22.62225945       0.00000000       0.00000000       0.00000000      28.08500000      -0.00004000      -0.00237000      -0.00014000
Si      41.87997511       5.75711413      13.37152219       0.00000000       0.00000000       0.00000000      28.08500000       0.00031000      -0.00660000      -0.00768000
Si      29.92255618       4.36270841      16.68874910       0.00000000       0.00000000       0.00000000      28.08500000      -0.00112000       0.00546000       0.00280000
Si      42.50763766      -3.89823422      25.03361673       0.00000000       0.00000000       0.00000000      28.08500000       0.00268000       0.00004000       0.00013000
Si      30.34397349       9.01589275      17.86456751       0.00000000       0.00000000       0.00000000      28.08500000       0.00011000       0.00560000      -0.00174000
Si      39.01073174      10.26130064      15.52030234       0.00000000       0.00000000       0.00000000      28.08500000       0.00988000      -0.00037000       0.00589000
Si      31.97127394       5.38362272      17.14124490       0.00000000       0.00000000       0.00000000      28.08500000       0.00354000      -0.00009000      -0.00250000
Si      36.04846749       5.81484593      13.07827991       0.00000000       0.00000000       0.00000000      28.08500000      -0.00111000      -0.00187000      -0.00069000
Si      39.08974005       0.62569351      24.35869909       0.00000000       0.00000000       0.00000000      28.08500000      -0.00549000       0.00067000      -0.01470000
Si      32.32886774       7.80236235      17.34895898       0.00000000       0.00000000       0.00000000      28.08500000      -0.01115000      -0.00462000       0.00089000
Si      38.93624354      -4.60566466      18.64298826       0.00000000       0.00000000       0.00000000      28.08500000       0.00121000      -0.00354000       0.02083000
Si      36.30369553       6.96256153      16.87336761       0.00000000       0.00000000       0.00000000      28.08500000      -0.00029000      -0.00205000       0.00856000
Si      39.46259208       9.03874459      21.11159209       0.00000000       0.00000000       0.00000000      28.08500000       0.00853000       0.00644000       0.00294000
Si      42.92596237      11.06608158      10.66043395       0.00000000       0.00000000       0.00000000      28.08500000       0.00124000       0.00444000       0.00188000
Si      31.59060701      -3.86485188      12.07840698       0.00000000       0.00000000       0.00000000      28.08500000       0.00520000      -0.00607000       0.00459000
Si      36.78821979       7.07314898      20.52097275       0.00000000       0.00000000       0.00000000      28.08500000      -0.00489000      -0.00914000      -0.00311000
Si      32.48176613       2.64968405      27.04367210       0.00000000       0.00000000       0.00000000      28.08500000      -0.00428000       0.00761000      -0.00211000
Si      31.62925980      11.35475495      23.13685349       0.00000000       0.00000000       0.00000000      28.08500000       0.00602000      -0.00027000      -0.00901000
Si      28.12550983      -2.33373572      11.51541144       0.00000000       0.00000000       0.00000000      28.08500000       0.00384000       0.00389000      -0.00475000
Si      30.01993847      10.98970759      12.26460548       0.00000000       0.00000000       0.00000000      28.08500000       0.00276000      -0.00131000      -0.00289000
Si      31.49853233      -0.01256973      23.46994976       0.00000000       0.00000000       0.00000000      28.08500000      -0.00734000      -0.00034000      -0.00269000
Si      39.32055052       0.73236403      26.66011500       0.00000000       0.00000000       0.00000000      28.08500000      -0.01609000      -0.00370000       0.01323000
Si      31.81308629      -3.31745600      17.67799875       0.00000000       0.00000000       0.00000000      28.08500000       0.00351000       0.00529000       0.00034000
Si      26.97163637      10.66130206      19.84493460       0.00000000       0.00000000       0.00000000      28.08500000      -0.00183000       0.00456000       0.00371000
Si      41.80093325      -2.24483727      20.25778503       0.00000000       0.00000000       0.00000000      28.08500000       0.00391000       0.00165000       0.00044000
Si      42.20586296       9.62851333      13.69737508       0.00000000       0.00000000       0.00000000      28.08500000       0.00121000       0.00570000       0.00756000
Si      31.80468573       4.30144277      23.60886062       0.00000000       0.00000000       0.00000000      28.08500000       0.01252000       0.01125000       0.01082000
Si      28.61995463       8.59773221      22.55233291       0.00000000       0.00000000       0.00000000      28.08500000      -0.00750000       0.00335000       0.00814000