54
Lattice="7.796727 7.796727 0.0 -2e-06 7.79673 7.79673 7.796733 -5e-06 7.796733" Properties=species:S:1:pos:R:3:momenta:R:3:masses:R:1:forces:R:3 config_type=dia energy=-8803.592969 virial="106.9974253 -3.1938314 -0.52943286 -3.1938314 107.05059518 -0.90330818 -0.52943286 -0.90330818 107.17321663" pbc="T T T"
Si      -0.01941387       0.00900524      -0.00633875       0.00000000       0.00000000       0.00000000      28.08500000       0.59486000      -0.22907000       0.22354000
Si       1.31965097       1.27992611       1.29258114       0.00000000       0.00000000       0.00000000      28.08500000      -0.35583000      -0.02096000      -0.09276000
Si       2.57813792      -0.01792634       2.59157168       0.00000000       0.00000000       0.00000000      28.08500000       0.27131000      -0.25400000       0.15225000
Si       3.90639648       1.25541153       3.88083921       0.00000000       0.00000000       0.00000000      28.08500000      -0.52853000       0.47428000       0.12402000
Si       5.16745633      -0.00360541       5.20088871       0.00000000       0.00000000       0.00000000      28.08500000       0.37200000      -0.25286000       0.47317000
Si       6.51424773       1.29268603       6.51477052       0.00000000       0.00000000       0.00000000      28.08500000      -0.82897000      -0.52717000      -0.32890000
Si       0.01761994       2.59305205       2.55835661       0.00000000       0.00000000       0.00000000      28.08500000      -0.33230000      -0.01022000       0.26721000
Si       1.27581708       3.89048185       3.88504843       0.00000000       0.00000000       0.00000000      28.08500000       0.12757000      -0.07710000       0.04405000
Si       2.62487083       2.62606954       5.16176372       0.00000000       0.00000000       0.00000000      28.08500000      -0.28420000      -0.57534000       0.48817000
Si       3.91905767       3.93445373       6.48554736       0.00000000       0.00000000       0.00000000      28.08500000       0.15024000      -0.61524000       0.05470000
Si       5.22435622       2.56714017       7.78874036       0.00000000       0.00000000       0.00000000      28.08500000      -0.46048000       0.86668000       0.13441000
Si       6.47751664       3.92277257       9.11712406       0.00000000       0.00000000       0.00000000      28.08500000       0.51166000      -0.53355000      -0.73238000
Si       0.01436804       5.19404118       5.19732361       0.00000000       0.00000000       0.00000000      28.08500000       0.09598000       0.45226000      -0.12538000
Si       1.30432907       6.49437914       6.52765652       0.00000000       0.00000000       0.00000000      28.08500000       0.04979000      -0.02896000      -0.31667000
Si       2.61006420       5.18216509       7.80476944       0.00000000       0.00000000       0.00000000      28.08500000       0.24965000       0.36254000       0.05713000
Si       3.92468628       6.48535665       9.11996889       0.00000000       0.00000000       0.00000000      28.08500000      -0.20220000      -0.09538000      -0.22058000
Si       5.23224584       5.18705196      10.41177085       0.00000000       0.00000000       0.00000000      28.08500000      -0.65165000       0.19737000       0.47831000
Si       6.50104651       6.51392222      11.69654744       0.00000000       0.00000000       0.00000000      28.08500000       0.16888000      -0.08277000       0.26105000
Si       2.58098172       2.60565838       0.02726517       0.00000000       0.00000000       0.00000000      28.08500000       0.48698000      -0.00744000      -0.42827000
Si       3.88565514       3.93397881       1.29589473       0.00000000       0.00000000       0.00000000      28.08500000       0.17905000      -0.05410000       0.07954000
Si       5.15887014       2.59097548       2.60776548       0.00000000       0.00000000       0.00000000      28.08500000       0.23324000       0.66050000       0.12827000
Si       6.51990614       3.91280120       3.89875609       0.00000000       0.00000000       0.00000000      28.08500000      -0.85034000      -0.01216000      -0.00166000
Si       7.73368665       2.56856602       5.21985036       0.00000000       0.00000000       0.00000000      28.08500000       0.87809000       0.34020000      -0.57600000
Si       9.08172551       3.86318896       6.48313138       0.00000000       0.00000000       0.00000000      28.08500000       0.01731000       0.05239000      -0.10802000
Si       2.57660709       5.20292847       2.62841023       0.00000000       0.00000000       0.00000000      28.08500000       0.22515000       0.10919000      -0.23579000
Si       3.88691755       6.52482439       3.89626792       0.00000000       0.00000000       0.00000000      28.08500000       0.26571000       0.35960000      -1.02202000
Si       5.16025724       5.26562033       5.17043366       0.00000000       0.00000000       0.00000000      28.08500000       0.82099000      -0.69737000       0.16101000
Si       6.50209773       6.51084318       6.48265478       0.00000000       0.00000000       0.00000000      28.08500000       0.11526000      -0.16590000      -0.01472000
Si       7.79952156       5.18606080       7.77274146       0.00000000       0.00000000       0.00000000      28.08500000       0.08124000       0.24538000       0.33347000
Si       9.13896841       6.51584699       9.07785974       0.00000000       0.00000000       0.00000000      28.08500000      -0.75741000      -0.50266000       0.10998000
Si       2.59171648       7.77945925       5.17286526       0.00000000       0.00000000       0.00000000      28.08500000       0.07311000       0.42379000       0.94422000
Si       3.91872758       9.08330572       6.52958231       0.00000000       0.00000000       0.00000000      28.08500000      -0.56455000       0.11318000      -0.32222000
Si       5.21808498       7.78338712       7.80124531       0.00000000       0.00000000       0.00000000      28.08500000       0.03693000       0.05662000       0.32262000
Si       6.46977185       9.08489460       9.16289768       0.00000000       0.00000000       0.00000000      28.08500000      -0.02745000       0.29780000      -0.80803000
Si       7.79408657       7.79726365      10.37238175       0.00000000       0.00000000       0.00000000      28.08500000       0.38473000      -0.37754000       0.26378000
Si       9.07909668       9.07222325      11.70937307       0.00000000       0.00000000       0.00000000      28.08500000      -0.18837000       0.47643000      -0.13280000
Si       5.21253301       5.24492064       0.00433498       0.00000000       0.00000000       0.00000000      28.08500000       0.30309000      -0.59442000      -0.06338000
Si       6.50688359       6.53809341       1.32588876       0.00000000       0.00000000       0.00000000      28.08500000       0.19743000      -0.61402000      -0.29899000
Si       7.81144143       5.18670859       2.57810673       0.00000000       0.00000000       0.00000000      28.08500000      -0.10327000       0.21164000       0.11284000
Si       9.08533339       6.48604078       3.90942202       0.00000000       0.00000000       0.00000000      28.08500000       0.07116000      -0.08914000      -0.35922000
Si      10.38677252       5.18575573       5.18284708       0.00000000       0.00000000       0.00000000      28.08500000      -0.02947000      -0.15748000       0.33165000
Si      11.66005634       6.48093226       6.52000212       0.00000000       0.00000000       0.00000000      28.08500000       0.36329000      -0.05107000      -0.55664000
Si       5.25895407       7.84184765       2.58270580       0.00000000       0.00000000       0.00000000      28.08500000      -1.05889000      -0.12910000       0.61009000
Si       6.49190540       9.13617437       3.91691367       0.00000000       0.00000000       0.00000000      28.08500000       0.37556000       0.13865000      -0.14312000
Si       7.80230299       7.79838704       5.17266355       0.00000000       0.00000000       0.00000000      28.08500000      -0.78307000      -0.35564000      -0.35024000
Si       9.05596245       9.04000785       6.44689897       0.00000000       0.00000000       0.00000000      28.08500000       1.09298000       1.23916000       0.66556000
Si      10.40072020       7.78730621       7.78368807       0.00000000       0.00000000       0.00000000      28.08500000      -0.09898000       0.72053000      -0.09654000
Si      11.69742539       9.09886367       9.09073993       0.00000000       0.00000000       0.00000000      28.08500000      -0.15346000       0.04037000       0.02491000
Si       5.18542246      10.41527537       5.21358758       0.00000000       0.00000000       0.00000000      28.08500000       0.05296000      -0.17501000       0.34662000
Si       6.53563660      11.70209378       6.47337568       0.00000000       0.00000000       0.00000000      28.08500000      -0.38071000      -0.16593000       0.90369000
Si       7.80065725      10.35442800       7.83091188       0.00000000       0.00000000       0.00000000      28.08500000      -0.20729000       0.00432000      -0.43568000
Si       9.10319435      11.70496133       9.08072793       0.00000000       0.00000000       0.00000000      28.08500000       0.07265000      -0.51990000       0.08678000
Si      10.39070854      10.40016197      10.41243356       0.00000000       0.00000000       0.00000000      28.08500000      -0.21268000      -0.24136000      -0.17378000
Si      11.69252839      11.67729686      11.70416485       0.00000000       0.00000000       0.00000000      28.08500000       0.14125000       0.36997000      -0.23925000
2
Lattice="3.596204 0.0 0.0 1.703124 3.190011 0.0 1.825719 1.302576 2.939624" Properties=species:S:1:pos:R:3:momenta:R:3:masses:R:1:forces:R:3 config_type=dia energy=-325.824101 virial="5.51616651 -0.22319884 -0.41744989 -0.22319884 4.09614673 -0.38259666 -0.41744989 -0.38259666 5.65763141" pbc="T T T"
Si       0.00000000       0.00000000       0.00000000       0.00000000       0.00000000       0.00000000      28.08500000       0.62771000      -0.67853000       0.27924000
Si       1.82655966       1.05456392       0.74568854       0.00000000       0.00000000       0.00000000      28.08500000      -0.62771000       0.67853000      -0.27924000
54
Lattice="8.196919 8.196935 0.001138 0.000107 8.197966 8.197987 8.198287 -0.00023 8.198323" Properties=species:S:1:pos:R:3:momenta:R:3:masses:R:1:forces:R:3 config_type=dia energy=-8811.218759 virial="-0.60644644 -1.21372494 1.57961038 -1.21372494 -0.6378446 0.7061146 1.57961038 0.7061146 -0.67774212" pbc="T T T"
Si       0.00747574       0.00001559      -0.00472114       0.00000000       0.00000000       0.00000000      28.08500000      -0.01722000      -0.09339000       0.10860000
Si       1.39673357       1.33000508       1.34507839       0.00000000       0.00000000       0.00000000      28.08500000      -0.16291000       0.47689000       0.29890000
Si       2.78642840       0.00807582       2.73359658       0.00000000       0.00000000       0.00000000      28.08500000      -0.56867000      -0.10330000       0.27761000
Si       4.13902741       1.35996508       4.10894577       0.00000000       0.00000000       0.00000000      28.08500000      -0.42710000      -0.03860000       0.05663000
Si       5.47268988       0.00277159       5.44386957       0.00000000       0.00000000       0.00000000      28.08500000       0.04103000      -0.24845000       0.63354000
Si       6.84726094       1.35306199       6.84690390       0.00000000       0.00000000       0.00000000      28.08500000      -0.16943000       0.26403000      -0.30059000
Si       0.00292097       2.75311423       2.74758047       0.00000000       0.00000000       0.00000000      28.08500000       0.17176000      -0.54102000      -0.41334000
Si       1.33765186       4.12064340       4.07334161       0.00000000       0.00000000       0.00000000      28.08500000       0.24446000       0.19693000       0.33878000
Si       2.73899484       2.74601678       5.41053318       0.00000000       0.00000000       0.00000000      28.08500000      -0.26904000      -0.17084000       0.50972000
Si       4.10829848       4.07329802       6.83402709       0.00000000       0.00000000       0.00000000      28.08500000      -0.12525000       0.37819000      -0.29485000
Si       5.46337303       2.74165580       8.19165318       0.00000000       0.00000000       0.00000000      28.08500000       0.04853000      -0.41367000       0.19654000
Si       6.83354184       4.07367331       9.57732373       0.00000000       0.00000000       0.00000000      28.08500000      -0.12839000       0.16633000      -0.13256000
Si       0.00016088       5.49424347       5.48305200       0.00000000       0.00000000       0.00000000      28.08500000      -0.08689000      -0.45090000      -0.12872000
Si       1.35070047       6.83443348       6.82810215       0.00000000       0.00000000       0.00000000      28.08500000       0.40771000       0.05397000       0.18564000
Si       2.76163663       5.48059713       8.20572610       0.00000000       0.00000000       0.00000000      28.08500000      -0.18194000      -0.09851000      -0.16370000
Si       4.10016425       6.81744638       9.61051901       0.00000000       0.00000000       0.00000000      28.08500000       0.30628000       0.12498000      -0.48716000
Si       5.48558341       5.46737965      10.92223225       0.00000000       0.00000000       0.00000000      28.08500000      -0.27000000      -0.49066000       0.35777000
Si       6.81292840       6.80599167      12.31550663       0.00000000       0.00000000       0.00000000      28.08500000       0.39936000       0.46378000      -0.40302000
Si       2.71134719       2.74289216      -0.02922352       0.00000000       0.00000000       0.00000000      28.08500000       0.21997000      -0.28853000       0.29696000
Si       4.04971352       4.07704575       1.40279343       0.00000000       0.00000000       0.00000000      28.08500000       0.40564000       0.01299000      -0.23802000
Si       5.46137208       2.70014099       2.77215315       0.00000000       0.00000000       0.00000000      28.08500000       0.06497000       0.39941000      -0.62074000
Si       6.81090162       4.11228691       4.06805400       0.00000000       0.00000000       0.00000000      28.08500000       0.16669000      -0.06496000       0.17817000
Si       8.17139857       2.76290607       5.45296948       0.00000000       0.00000000       0.00000000      28.08500000       0.16713000      -0.17461000       0.13051000
Si       9.57509523       4.08995300       6.83295367       0.00000000       0.00000000       0.00000000      28.08500000      -0.33411000       0.33550000      -0.22791000
Si       2.70690796       5.48596517       2.72308581       0.00000000       0.00000000       0.00000000      28.08500000       0.15713000      -0.23206000       0.16923000
Si       4.10523937       6.82108525       4.06492655       0.00000000       0.00000000       0.00000000      28.08500000      -0.27968000       0.20324000       0.39953000
Si       5.45957102       5.46122756       5.43272440       0.00000000       0.00000000       0.00000000      28.08500000      -0.06098000       0.09949000       0.31865000
Si       6.81734476       6.87579430       6.79361657       0.00000000       0.00000000       0.00000000      28.08500000       0.00558000      -0.49125000       0.42849000
Si       8.17376886       5.43238895       8.20408716       0.00000000       0.00000000       0.00000000      28.08500000       0.08845000       0.41599000      -0.28600000
Si       9.56401674       6.80840042       9.57258773       0.00000000       0.00000000       0.00000000      28.08500000      -0.22393000       0.27321000      -0.47973000
Si       2.73045703       8.21656802       5.48547187       0.00000000       0.00000000       0.00000000      28.08500000       0.03251000      -0.43559000      -0.38209000
Si       4.08069393       9.54891299       6.83063637       0.00000000       0.00000000       0.00000000      28.08500000       0.31366000       0.19383000       0.29821000
Si       5.46440677       8.21209800       8.23110537       0.00000000       0.00000000       0.00000000      28.08500000      -0.19151000      -0.22064000      -0.23206000
Si       6.83323178       9.57656700       9.56000091       0.00000000       0.00000000       0.00000000      28.08500000       0.04537000      -0.08181000       0.17402000
Si       8.22226269       8.20747527      10.90916832       0.00000000       0.00000000       0.00000000      28.08500000      -0.20014000      -0.10746000       0.49700000
Si       9.58321612       9.58988531      12.32299921       0.00000000       0.00000000       0.00000000      28.08500000      -0.36922000      -0.14440000      -0.19636000
Si       5.45305871       5.45966003       0.01715256       0.00000000       0.00000000       0.00000000      28.08500000       0.17489000      -0.26138000       0.21783000
Si       6.83008868       6.86137108       1.36918424       0.00000000       0.00000000       0.00000000      28.08500000       0.06125000      -0.42065000      -0.08987000
Si       8.19996531       5.45828594       2.72692294       0.00000000       0.00000000       0.00000000      28.08500000      -0.06214000       0.27276000      -0.08799000
Si       9.54033149       6.84456523       4.10842909       0.00000000       0.00000000       0.00000000      28.08500000       0.50743000      -0.12073000      -0.11297000
Si      10.95552298       5.47740739       5.48370826       0.00000000       0.00000000       0.00000000      28.08500000      -0.34234000      -0.07651000      -0.15781000
Si      12.30411393       6.82296847       6.85967159       0.00000000       0.00000000       0.00000000      28.08500000       0.07406000       0.30072000      -0.24979000
Si       5.47321838       8.18842474       2.73557457       0.00000000       0.00000000       0.00000000      28.08500000      -0.00310000       0.43702000       0.00690000
Si       6.84738134       9.59294085       4.11372364       0.00000000       0.00000000       0.00000000      28.08500000      -0.14549000      -0.32610000      -0.18106000
Si       8.21117297       8.21570287       5.46665108       0.00000000       0.00000000       0.00000000      28.08500000      -0.19374000      -0.01170000      -0.10860000
Si       9.54524727       9.54581267       6.84289106       0.00000000       0.00000000       0.00000000      28.08500000       0.53543000       0.27455000      -0.48358000
Si      10.91992173       8.21054523       8.19267366       0.00000000       0.00000000       0.00000000      28.08500000      -0.03869000      -0.38526000       0.12784000
Si      12.27430756       9.55435108       9.55836585       0.00000000       0.00000000       0.00000000      28.08500000       0.28412000       0.15686000       0.13199000
Si       5.45948302      10.90653578       5.46536307       0.00000000       0.00000000       0.00000000      28.08500000       0.00611000       0.26226000       0.19963000
Si       6.85767499      12.28133370       6.84018463       0.00000000       0.00000000       0.00000000      28.08500000      -0.44886000       0.16673000      -0.11909000
Si       8.19234742      10.89075915       8.16501566       0.00000000       0.00000000       0.00000000      28.08500000       0.24780000       0.59298000       0.60612000
Si       9.58861204      12.31792495       9.57431046       0.00000000       0.00000000       0.00000000      28.08500000      -0.25613000      -0.39088000      -0.33534000
Si      10.93005911      10.93281157      10.94231086       0.00000000       0.00000000       0.00000000      28.08500000      -0.06316000      -0.09334000      -0.18601000
Si      12.27442832      12.26352656      12.30566520       0.00000000       0.00000000       0.00000000      28.08500000       0.44272000       0.45459000      -0.04585000
2
Lattice="3.637111 0.0 0.0 1.751302 3.219792 0.0 1.843094 1.164905 2.971328" Properties=species:S:1:pos:R:3:momenta:R:3:masses:R:1:forces:R:3 config_type=dia energy=-326.012398 virial="4.61243481 -0.0695221 -0.3199015 -0.0695221 3.256572 0.04584458 -0.3199015 0.04584458 4.77830196" pbc="T T T"
Si       0.00000000       0.00000000       0.00000000       0.00000000       0.00000000       0.00000000      28.08500000       0.41131000      -0.58369000       0.31034000
Si       1.83770292       1.06099788       0.75023952       0.00000000       0.00000000       0.00000000      28.08500000      -0.41131000       0.58369000      -0.31034000
2
Lattice="3.792927 0.0 0.0 1.827085 3.356905 0.0 1.678781 1.050134 3.268531" Properties=species:S:1:pos:R:3:momenta:R:3:masses:R:1:forces:R:3 config_type=dia energy=-326.229346 virial="0.76309107 -0.04145759 0.58695163 -0.04145759 -0.1415085 0.4994818 0.58695163 0.4994818 -1.81808663" pbc="T T T"
Si       0.00000000       0.00000000       0.00000000       0.00000000       0.00000000       0.00000000      28.08500000       0.93530000      -0.15970000      -0.68241000
Si       1.93079552       1.11474502       0.78824547       0.00000000       0.00000000       0.00000000      28.08500000      -0.93530000       0.15970000       0.68241000
54
Lattice="7.74945 7.74945 -2e-06 -5e-06 7.749454 7.749454 7.749449 0.0 7.749449" Properties=species:S:1:pos:R:3:momenta:R:3:masses:R:1:forces:R:3 config_type=dia energy=-8801.642609 virial="122.35409841 -2.2622879 0.39452342 -2.2622879 122.41743175 -2.38533538 0.39452342 -2.38533538 122.24856025" pbc="T T T"
Si      -0.03804206       0.01407301      -0.00518436       0.00000000       0.00000000       0.00000000      28.08500000       0.23873000      -0.00985000      -0.21394000
Si       1.28230874       1.31308264       1.27163058       0.00000000       0.00000000       0.00000000      28.08500000      -0.26890000      -0.16970000       0.26821000
Si       2.55513281       0.01965262       2.58924592       0.00000000       0.00000000       0.00000000      28.08500000       0.31171000       0.04513000      -0.42470000
Si       3.90504004       1.26230822       3.85798591       0.00000000       0.00000000       0.00000000      28.08500000      -0.39924000       0.30433000       0.20882000
Si       5.17642272      -0.03415184       5.15226765       0.00000000       0.00000000       0.00000000      28.08500000      -0.36940000       0.43798000       0.22677000
Si       6.43418894       1.30487597       6.40752365       0.00000000       0.00000000       0.00000000      28.08500000       0.03295000      -0.25951000       0.48417000
Si      -0.02057647       2.57561630       2.61128702       0.00000000       0.00000000       0.00000000      28.08500000       0.83625000       0.39620000      -0.46894000
Si       1.28699548       3.88649034       3.89199220       0.00000000       0.00000000       0.00000000      28.08500000      -0.21280000       0.17218000      -0.51791000
Si       2.59449062       2.61121725       5.12069806       0.00000000       0.00000000       0.00000000      28.08500000       0.21085000      -0.80431000       0.60329000
Si       3.86538441       3.88241413       6.46345311       0.00000000       0.00000000       0.00000000      28.08500000       0.04892000      -0.27934000       0.14423000
Si       5.16486661       2.55826526       7.75275193       0.00000000       0.00000000       0.00000000      28.08500000      -0.43067000       0.00549000      -0.05678000
Si       6.47212859       3.84381410       9.03012484       0.00000000       0.00000000       0.00000000      28.08500000      -0.21637000       0.09376000       0.04240000
Si      -0.00015833       5.17730947       5.17853389       0.00000000       0.00000000       0.00000000      28.08500000       0.11732000      -0.16544000       0.32174000
Si       1.31121086       6.47708630       6.45444990       0.00000000       0.00000000       0.00000000      28.08500000      -0.80242000      -0.05757000       0.37964000
Si       2.57320895       5.18541540       7.73686723       0.00000000       0.00000000       0.00000000      28.08500000       0.01383000      -0.38118000       0.48673000
Si       3.86433656       6.46626808       9.04991863       0.00000000       0.00000000       0.00000000      28.08500000       0.34549000       0.31189000      -0.25377000
Si       5.18981043       5.15846279      10.31535687       0.00000000       0.00000000       0.00000000      28.08500000      -0.33350000      -0.02138000       0.15751000
Si       6.45076166       6.44549180      11.65612808       0.00000000       0.00000000       0.00000000      28.08500000       0.44037000      -0.10642000      -0.91730000
Si       2.61441645       2.57852874       0.01939620       0.00000000       0.00000000       0.00000000      28.08500000      -0.04450000       0.23816000      -0.08922000
Si       3.90544332       3.88895332       1.29305713       0.00000000       0.00000000       0.00000000      28.08500000      -0.27738000       0.09331000      -0.02313000
Si       5.15667743       2.58945547       2.58727688       0.00000000       0.00000000       0.00000000      28.08500000       0.68474000      -0.01219000       0.08272000
Si       6.49344931       3.89443218       3.87409637       0.00000000       0.00000000       0.00000000      28.08500000      -0.46478000       0.03572000      -0.08171000
Si       7.74231981       2.61759374       5.20615669       0.00000000       0.00000000       0.00000000      28.08500000       0.49509000      -0.15052000      -0.55117000
Si       9.04571481       3.88844962       6.50151608       0.00000000       0.00000000       0.00000000      28.08500000       0.64750000      -0.41496000      -0.49684000
Si       2.58200658       5.16842726       2.57569311       0.00000000       0.00000000       0.00000000      28.08500000       0.39862000      -0.20784000       0.45716000
Si       3.88296049       6.47047469       3.88560598       0.00000000       0.00000000       0.00000000      28.08500000      -0.39330000      -0.01743000       0.24762000
Si       5.15920208       5.16263843       5.18180182       0.00000000       0.00000000       0.00000000      28.08500000       0.27268000       0.02840000      -0.16430000
Si       6.48631040       6.43300609       6.48175663       0.00000000       0.00000000       0.00000000      28.08500000      -0.48659000       0.21060000      -0.54531000
Si       7.74527072       5.14095546       7.73321489       0.00000000       0.00000000       0.00000000      28.08500000       0.17559000       0.28641000       0.88889000
Si       9.03854492       6.42715526       9.06671710       0.00000000       0.00000000       0.00000000      28.08500000      -0.39004000       0.00267000      -0.48427000
Si       2.57329451       7.76755540       5.20913582       0.00000000       0.00000000       0.00000000      28.08500000       0.30182000       0.23571000      -0.90785000
Si       3.89860497       9.04309193       6.46962266       0.00000000       0.00000000       0.00000000      28.08500000      -0.05093000       0.11094000      -0.17345000
Si       5.21496548       7.77281725       7.72832664       0.00000000       0.00000000       0.00000000      28.08500000      -0.74701000      -0.82800000       0.30009000
Si       6.45213366       9.02595015       9.03164475       0.00000000       0.00000000       0.00000000      28.08500000       0.15580000       0.63029000       0.35044000
Si       7.74277373       7.74040905      10.30780825       0.00000000       0.00000000       0.00000000      28.08500000      -0.08303000      -0.01751000       0.70537000
Si       9.03020485       9.05934254      11.61714767       0.00000000       0.00000000       0.00000000      28.08500000      -0.28036000      -0.24958000       0.44267000
Si       5.17547020       5.16530289      -0.02853482       0.00000000       0.00000000       0.00000000      28.08500000      -0.08614000       0.16906000       0.20965000
Si       6.45033945       6.44594635       1.29718694       0.00000000       0.00000000       0.00000000      28.08500000      -0.28370000       0.38571000      -0.29423000
Si       7.75127853       5.20499559       2.56346990       0.00000000       0.00000000       0.00000000      28.08500000       0.50645000      -0.42882000       0.33096000
Si       9.07009494       6.46890796       3.87787743       0.00000000       0.00000000       0.00000000      28.08500000      -0.42629000      -0.24204000       0.34256000
Si      10.36157196       5.13879977       5.16553337       0.00000000       0.00000000       0.00000000      28.08500000      -0.66549000       0.57638000       0.42121000
Si      11.62112055       6.47372813       6.45773101       0.00000000       0.00000000       0.00000000      28.08500000      -0.08324000      -0.25594000       0.02446000
Si       5.18106361       7.75395377       2.61065797       0.00000000       0.00000000       0.00000000      28.08500000      -0.04122000      -0.10374000      -0.26166000
Si       6.46077629       9.07261601       3.86968019       0.00000000       0.00000000       0.00000000      28.08500000      -0.43664000      -0.42891000       0.23105000
Si       7.70139366       7.74797894       5.14556474       0.00000000       0.00000000       0.00000000      28.08500000       0.61810000      -0.20509000       0.15974000
Si       9.02241866       9.03792947       6.43563125       0.00000000       0.00000000       0.00000000      28.08500000       0.47713000      -0.04236000      -0.27904000
Si      10.30041937       7.71354813       7.75673383       0.00000000       0.00000000       0.00000000      28.08500000      -0.09699000       0.40362000      -0.21999000
Si      11.61395840       8.99320739       9.04559142       0.00000000       0.00000000       0.00000000      28.08500000      -0.01854000       0.30435000      -0.06930000