128
Lattice="10.649412 10.648612 0.002021 0.001593 10.64904 10.650159 10.658478 -0.007041 10.658797" Properties=species:S:1:pos:R:3:momenta:R:3:masses:R:1:forces:R:3 config_type=dia energy=-20880.861449 virial="117.00360094 1.41189891 -0.18965266 1.41189891 117.02497026 3.50393356 -0.18965266 3.50393356 116.75640507" pbc="T T T"
Si      -0.00076587       0.01773845      -0.00654712       0.00000000       0.00000000       0.00000000      28.08500000      -0.20687000      -0.19756000       0.12803000
Si       1.38220843       1.33288861       1.24364335       0.00000000       0.00000000       0.00000000      28.08500000      -0.39562000      -0.22304000      -0.32177000
Si       2.73715550       0.03881155       2.62671138       0.00000000       0.00000000       0.00000000      28.08500000       0.13507000      -0.27421000       0.19090000
Si       4.00899490       1.26026987       4.08555539       0.00000000       0.00000000       0.00000000      28.08500000       0.15785000       0.41925000      -0.27225000
Si       5.37384145      -0.09023768       5.37057010       0.00000000       0.00000000       0.00000000      28.08500000       0.20420000      -0.87066000       0.51462000
Si       6.72526999       1.21729006       6.67572968       0.00000000       0.00000000       0.00000000      28.08500000       0.51233000      -0.38880000      -0.05198000
Si       8.00645093      -0.00563390       8.12246774       0.00000000       0.00000000       0.00000000      28.08500000      -0.25205000      -0.42632000      -0.20647000
Si       9.22755640       1.36234841       9.46371188       0.00000000       0.00000000       0.00000000      28.08500000      -0.32476000       0.17784000      -0.06752000
Si       0.08032405       2.66939837       2.63675351       0.00000000       0.00000000       0.00000000      28.08500000      -0.14476000       0.16853000      -0.33585000
Si       1.38070112       3.98181204       3.94215238       0.00000000       0.00000000       0.00000000      28.08500000       0.28776000       0.42262000       0.07491000
Si       2.68335223       2.62668327       5.32566065       0.00000000       0.00000000       0.00000000      28.08500000      -0.00739000       0.14957000      -0.39077000
Si       3.95842490       3.96199214       6.68333760       0.00000000       0.00000000       0.00000000      28.08500000      -0.19332000      -0.18965000      -0.55371000
Si       5.34838607       2.60839069       7.95521946       0.00000000       0.00000000       0.00000000      28.08500000      -0.17269000       0.05580000       0.45186000
Si       6.59656191       4.05534879       9.26808245       0.00000000       0.00000000       0.00000000      28.08500000      -0.23221000       0.36913000      -0.30236000
Si       7.90501480       2.83102019      10.71363075       0.00000000       0.00000000       0.00000000      28.08500000      -0.21947000      -0.15689000       1.06692000
Si       9.39895969       4.11240631      11.99762672       0.00000000       0.00000000       0.00000000      28.08500000      -0.12023000       0.36885000      -0.39351000
Si       0.05971597       5.31720599       5.31381857       0.00000000       0.00000000       0.00000000      28.08500000       0.67723000      -0.26336000      -0.24881000
Si       1.38644989       6.70631390       6.63229992       0.00000000       0.00000000       0.00000000      28.08500000       0.02861000      -0.33393000      -0.27102000
Si       2.61486867       5.28475976       7.98811398       0.00000000       0.00000000       0.00000000      28.08500000      -0.04030000       0.18855000       0.55843000
Si       3.92098693       6.66947756       9.29987469       0.00000000       0.00000000       0.00000000      28.08500000      -0.31303000       0.20541000      -0.24099000
Si       5.24119415       5.32091644      10.64486678       0.00000000       0.00000000       0.00000000      28.08500000      -0.36866000      -0.21090000       0.01660000
Si       6.69018527       6.57018158      11.89003967       0.00000000       0.00000000       0.00000000      28.08500000       0.29361000       0.28799000      -0.30761000
Si       7.98039845       5.29642287      13.29790223       0.00000000       0.00000000       0.00000000      28.08500000       0.52672000      -0.45179000       0.61549000
Si       9.27137321       6.61249155      14.67858329       0.00000000       0.00000000       0.00000000      28.08500000      -0.09335000       0.09699000       0.04796000
Si       0.06931425       7.99236922       7.95552074       0.00000000       0.00000000       0.00000000      28.08500000      -0.28162000      -0.06997000       0.70385000
Si       1.35840479       9.31684057       9.34487016       0.00000000       0.00000000       0.00000000      28.08500000       0.08139000      -0.00728000      -0.24040000
Si       2.64509210       8.01978725      10.71572807       0.00000000       0.00000000       0.00000000      28.08500000      -0.71711000      -0.18916000      -0.14264000
Si       4.05376343       9.30405295      11.94756375       0.00000000       0.00000000       0.00000000      28.08500000       0.39372000      -0.16371000      -0.40432000
Si       5.40224493       7.92191508      13.22807367       0.00000000       0.00000000       0.00000000      28.08500000       0.33263000       0.27593000       0.41421000
Si       6.67742899       9.22420728      14.63622639       0.00000000       0.00000000       0.00000000      28.08500000       0.44920000       0.23878000       0.29576000
Si       8.01106803       7.98869518      16.01426911       0.00000000       0.00000000       0.00000000      28.08500000      -0.51731000       0.41226000      -0.03429000
Si       9.32265734       9.36567948      17.35387246       0.00000000       0.00000000       0.00000000      28.08500000       0.18382000       0.02627000      -0.14298000
Si       2.69500156       2.71720939      -0.05275218       0.00000000       0.00000000       0.00000000      28.08500000       0.12023000      -0.36106000      -0.02968000
Si       4.04559851       3.92037200       1.36965945       0.00000000       0.00000000       0.00000000      28.08500000       0.20571000       0.23049000      -0.04581000
Si       5.31932152       2.55519867       2.71521938       0.00000000       0.00000000       0.00000000      28.08500000      -0.14960000      -0.81823000       0.49210000
Si       6.66945425       3.93265511       4.03453636       0.00000000       0.00000000       0.00000000      28.08500000      -0.00609000      -0.47013000      -0.12998000
Si       8.05991766       2.61327511       5.35479588       0.00000000       0.00000000       0.00000000      28.08500000       0.08419000      -0.15087000       0.24031000
Si       9.26749712       3.99430224       6.69084097       0.00000000       0.00000000       0.00000000      28.08500000       0.20511000       0.33706000      -0.52421000
Si      10.57392146       2.65406624       8.06753894       0.00000000       0.00000000       0.00000000      28.08500000      -0.17553000       0.62588000       0.37389000
Si      11.96679609       3.95117363       9.33349643       0.00000000       0.00000000       0.00000000      28.08500000       0.05140000      -0.04279000      -0.50848000
Si       2.74188941       5.32402825       2.61207592       0.00000000       0.00000000       0.00000000      28.08500000      -0.08314000       0.64028000       0.31523000
Si       4.04587258       6.70694714       3.95626527       0.00000000       0.00000000       0.00000000      28.08500000       0.02408000       0.44073000      -0.39333000
Si       5.26611329       5.26383141       5.32534549       0.00000000       0.00000000       0.00000000      28.08500000       0.67250000       0.18085000      -0.03648000
Si       6.61912207       6.63359366       6.61739344       0.00000000       0.00000000       0.00000000      28.08500000      -0.14094000      -0.20868000       0.10933000
Si       8.00775884       5.38099710       7.99585249       0.00000000       0.00000000       0.00000000      28.08500000      -0.13459000      -0.29782000      -0.24521000
Si       9.32448966       6.68583471       9.25567572       0.00000000       0.00000000       0.00000000      28.08500000       0.02345000      -0.55000000       0.08545000
Si      10.67249687       5.39900754      10.59190540       0.00000000       0.00000000       0.00000000      28.08500000      -0.95866000       0.04408000       0.33531000
Si      12.00639213       6.68319693      11.94818942       0.00000000       0.00000000       0.00000000      28.08500000      -0.08115000      -0.33345000      -0.20640000
Si       2.74200582       8.03289588       5.29756993       0.00000000       0.00000000       0.00000000      28.08500000      -0.28582000       0.30058000       0.33275000
Si       4.00853964       9.37417528       6.64807098       0.00000000       0.00000000       0.00000000      28.08500000       0.09298000      -0.02073000      -0.08317000
Si       5.34348918       7.98847740       7.98505991       0.00000000       0.00000000       0.00000000      28.08500000       0.01763000      -0.46337000      -0.19942000
Si       6.64786604       9.38147394       9.29274756       0.00000000       0.00000000       0.00000000      28.08500000       0.15353000      -0.00854000      -0.16541000
Si       7.94554694       7.97613417      10.56549421       0.00000000       0.00000000       0.00000000      28.08500000      -0.53601000       0.04696000       0.16698000
Si       9.25788450       9.28802663      11.99232740       0.00000000       0.00000000       0.00000000      28.08500000      -0.39072000      -0.08743000       0.55888000
Si      10.66069182       7.95825384      13.32042661       0.00000000       0.00000000       0.00000000      28.08500000       0.08278000      -0.62314000      -0.48611000
Si      11.96235215       9.23806174      14.65532503       0.00000000       0.00000000       0.00000000      28.08500000       0.35378000       0.30607000      -0.58711000
Si       2.58421615      10.64498943       7.94748569       0.00000000       0.00000000       0.00000000      28.08500000       0.06818000       0.29146000      -0.26506000
Si       3.97709629      12.01856059       9.27808598       0.00000000       0.00000000       0.00000000      28.08500000       0.20273000      -0.07995000      -0.15032000
Si       5.29907838      10.70320015      10.59533768       0.00000000       0.00000000       0.00000000      28.08500000       0.21575000       0.10679000       0.07840000
Si       6.62809538      11.93371348      12.02224709       0.00000000       0.00000000       0.00000000      28.08500000       0.16345000      -0.11526000      -0.25868000
Si       7.95585028      10.61331173      13.37619377       0.00000000       0.00000000       0.00000000      28.08500000      -0.03453000       0.43894000      -0.05488000
Si       9.31245446      11.95335843      14.61536894       0.00000000       0.00000000       0.00000000      28.08500000      -0.08311000      -0.25304000       0.34869000
Si      10.64901450      10.64899821      15.92791569       0.00000000       0.00000000       0.00000000      28.08500000      -0.41187000       0.18821000       0.38833000
Si      11.95213621      12.01335756      17.28327520       0.00000000       0.00000000       0.00000000      28.08500000       0.00899000       0.19183000       0.11773000
Si       5.26649635       5.34867289       0.01635742       0.00000000       0.00000000       0.00000000      28.08500000       0.28884000       0.16891000      -0.21382000
Si       6.66010479       6.60463462       1.33617066       0.00000000       0.00000000       0.00000000      28.08500000       0.12523000      -0.34228000      -0.35658000
Si       7.93961319       5.33188380       2.76928692       0.00000000       0.00000000       0.00000000      28.08500000      -0.15192000       0.05646000       0.05710000
Si       9.30675040       6.67419195       4.08939037       0.00000000       0.00000000       0.00000000      28.08500000       0.21313000       0.10266000      -0.46325000
Si      10.62673600       5.29519439       5.37462586       0.00000000       0.00000000       0.00000000      28.08500000       0.33527000       0.50623000      -0.01575000
Si      12.03013884       6.61782291       6.60039583       0.00000000       0.00000000       0.00000000      28.08500000       0.67154000      -0.03296000       0.07485000
Si      13.37550316       5.32580151       7.99506005       0.00000000       0.00000000       0.00000000      28.08500000       0.16290000       0.51097000       0.47828000
Si      14.61671279       6.71028732       9.37252025       0.00000000       0.00000000       0.00000000      28.08500000      -0.14792000       0.12885000      -0.14277000
Si       5.35922175       8.05996857       2.59947460       0.00000000       0.00000000       0.00000000      28.08500000      -0.40504000      -0.27902000      -0.52570000
Si       6.71639095       9.37019110       3.96765145       0.00000000       0.00000000       0.00000000      28.08500000       0.42132000       0.22036000       0.00880000
Si       7.93815124       7.96823956       5.35796267       0.00000000       0.00000000       0.00000000      28.08500000       0.11463000      -0.07272000      -0.62318000
Si       9.30465851       9.31726897       6.67998134       0.00000000       0.00000000       0.00000000      28.08500000      -0.44101000      -0.62424000       0.70686000
Si      10.66803679       7.94668143       7.93335010       0.00000000       0.00000000       0.00000000      28.08500000       0.11526000       0.12273000       0.10822000
Si      11.85503763       9.32187902       9.33572583       0.00000000       0.00000000       0.00000000      28.08500000      -0.13924000      -0.16769000       0.46567000
Si      13.29296821       8.12301334      10.69136248       0.00000000       0.00000000       0.00000000      28.08500000       0.18054000      -0.30421000      -0.31173000
Si      14.68632865       9.41993147      11.94873358       0.00000000       0.00000000       0.00000000      28.08500000      -0.36253000       0.27880000       0.32576000
Si       5.32487786      10.67594794       5.28899656       0.00000000       0.00000000       0.00000000      28.08500000      -0.57733000       0.19149000      -0.21572000
Si       6.69627902      11.96091722       6.59559004       0.00000000       0.00000000       0.00000000      28.08500000       0.14112000       0.23906000      -0.07728000
Si       8.03960965      10.69503105       8.01068913       0.00000000       0.00000000       0.00000000      28.08500000       0.31120000      -0.63975000      -0.41897000
Si       9.30627604      12.08407540       9.36153764       0.00000000       0.00000000       0.00000000      28.08500000       0.38482000      -0.07401000      -0.01340000
Si      10.60685051      10.64994647      10.75504103       0.00000000       0.00000000       0.00000000      28.08500000      -0.27554000       0.30069000       0.23732000
Si      11.93681750      11.94304813      12.05915032       0.00000000       0.00000000       0.00000000      28.08500000       0.03951000      -0.20110000      -0.12307000
Si      13.28321040      10.63695107      13.32790613       0.00000000       0.00000000       0.00000000      28.08500000       0.12341000       0.09118000       0.16283000
Si      14.59232197      11.98584275      14.67801063       0.00000000       0.00000000       0.00000000      28.08500000      -0.41653000       0.01507000       0.22039000
Si       5.42607085      13.28430700       8.00962222       0.00000000       0.00000000       0.00000000      28.08500000       0.15089000       0.16348000       0.07063000
Si       6.65412622      14.63186975       9.40853272       0.00000000       0.00000000       0.00000000      28.08500000       0.23915000      -0.15259000       0.05457000
Si       7.88112626      13.34214844      10.76783145       0.00000000       0.00000000       0.00000000      28.08500000       0.04959000       0.18737000      -0.27527000
Si       9.27134847      14.65375130      12.04439396       0.00000000       0.00000000       0.00000000      28.08500000      -0.20713000      -0.19994000       0.29973000
Si      10.62113015      13.32955394      13.28131388       0.00000000       0.00000000       0.00000000      28.08500000       0.45865000      -0.02257000       0.18289000
Si      11.95137341      14.59200408      14.66901990       0.00000000       0.00000000       0.00000000      28.08500000       0.28010000      -0.13653000       0.48847000
Si      13.34427838      13.37936575      16.00417301       0.00000000       0.00000000       0.00000000      28.08500000      -0.16647000       0.19860000      -0.48084000
Si      14.72183359      14.64621016      17.35504033       0.00000000       0.00000000       0.00000000      28.08500000      -0.03695000       0.78701000      -0.19111000
Si       7.99969479       7.98690116       0.00414268       0.00000000       0.00000000       0.00000000      28.08500000       0.03617000      -0.08768000      -0.18659000
Si       9.32525854       9.32570323       1.37591704       0.00000000       0.00000000       0.00000000      28.08500000      -0.33294000      -0.01654000      -0.14881000
Si      10.63065060       8.00735785       2.68491558       0.00000000       0.00000000       0.00000000      28.08500000       0.53418000      -0.20374000       0.04157000
Si      12.04927161       9.34381608       3.95263156       0.00000000       0.00000000       0.00000000      28.08500000      -0.00826000      -0.21276000       0.50145000
Si      13.37194360       7.93424023       5.22003333       0.00000000       0.00000000       0.00000000      28.08500000       0.25477000       0.19962000       0.28371000
Si      14.67935413       9.18925737       6.66034769       0.00000000       0.00000000       0.00000000      28.08500000      -0.25165000       0.20099000       0.38185000
Si      16.02345970       7.94890990       8.02398301       0.00000000       0.00000000       0.00000000      28.08500000       0.10902000      -0.24563000      -0.26021000
Si      17.28098343       9.30522876       9.38996502       0.00000000       0.00000000       0.00000000      28.08500000       0.53454000       0.69717000       0.20191000
Si       8.03332103      10.75354166       2.63501521       0.00000000       0.00000000       0.00000000      28.08500000       0.33026000       0.26865000       0.13738000
Si       9.40192098      12.02785898       3.97787499       0.00000000       0.00000000       0.00000000      28.08500000      -0.41263000      -0.08419000       0.52364000
Si      10.65266616      10.61640550       5.33560405       0.00000000       0.00000000       0.00000000      28.08500000      -0.30064000      -0.02964000      -0.71964000
Si      12.04406448      11.90822308       6.69202101       0.00000000       0.00000000       0.00000000      28.08500000       0.21006000      -0.56667000      -0.27942000
Si      13.34193220      10.54502846       7.98443162       0.00000000       0.00000000       0.00000000      28.08500000      -0.79278000      -0.46564000      -0.26620000
Si      14.62749069      12.00284668       9.30642930       0.00000000       0.00000000       0.00000000      28.08500000      -0.11630000      -0.18638000      -0.17249000
Si      16.02100655      10.67665269      10.61191611       0.00000000       0.00000000       0.00000000      28.08500000      -0.00513000      -0.18864000       0.54094000
Si      17.28499151      12.03125384      11.94491876       0.00000000       0.00000000       0.00000000      28.08500000       0.52680000       0.50826000       0.20030000
Si       8.04354658      13.35578362       5.32958151       0.00000000       0.00000000       0.00000000      28.08500000      -0.07809000       0.09698000       0.48993000
Si       9.36651532      14.64747222       6.69834361       0.00000000       0.00000000       0.00000000      28.08500000       0.33062000      -0.15022000      -0.47988000
Si      10.67698486      13.25465599       7.96829091       0.00000000       0.00000000       0.00000000      28.08500000       0.08960000      -0.05349000      -0.46201000
Si      11.93799412      14.62179945       9.32447011       0.00000000       0.00000000       0.00000000      28.08500000      -0.42144000       0.26862000       0.29944000
Si      13.24739500      13.24117888      10.70276948       0.00000000       0.00000000       0.00000000      28.08500000      -0.50551000       0.22798000      -0.66381000
Si      14.62571601      14.59701245      11.98576831       0.00000000       0.00000000       0.00000000      28.08500000       0.16379000       0.33538000      -0.07646000
Si      15.92082650      13.22927408      13.30016770       0.00000000       0.00000000       0.00000000      28.08500000       0.97837000      -0.18335000      -0.02414000
Si      17.27636353      14.59795765      14.59835364       0.00000000       0.00000000       0.00000000      28.08500000      -0.55252000       0.07715000       0.37092000
Si       7.99808990      15.92311744       8.08839249       0.00000000       0.00000000       0.00000000      28.08500000      -0.54877000      -0.07632000       0.16512000
Si       9.34987993      17.36957067       9.29779841       0.00000000       0.00000000       0.00000000      28.08500000       0.34305000      -0.16220000       0.22890000
Si      10.56262955      15.95361484      10.61818013       0.00000000       0.00000000       0.00000000      28.08500000       0.22521000      -0.54607000      -0.44253000
Si      11.96270692      17.30247552      11.96546435       0.00000000       0.00000000       0.00000000      28.08500000       0.06842000       0.72589000      -0.12711000
Si      13.31225468      15.93326326      13.29952576       0.00000000       0.00000000       0.00000000      28.08500000      -0.31717000      -0.53271000      -0.07775000
Si      14.68331368      17.24192827      14.55631743       0.00000000       0.00000000       0.00000000      28.08500000      -0.14609000       0.29509000       0.73785000
Si      16.02769511      15.96798204      15.95806010       0.00000000       0.00000000       0.00000000      28.08500000       0.29098000      -0.99940000      -0.17698000
Si      17.31145017      17.26575456      17.33218069       0.00000000       0.00000000       0.00000000      28.08500000       0.31647000       0.18354000       0.22461000
54
Lattice="7.705788 7.705787 1.3e-05 1.6e-05 7.705785 7.705786 7.705781 2.1e-05 7.705781" Properties=species:S:1:pos:R:3:momenta:R:3:masses:R:1:forces:R:3 config_type=dia energy=-8799.369708 virial="136.73220282 -0.06012666 2.13216897 -0.06012666 136.89956022 1.68155886 2.13216897 1.68155886 136.94620165" pbc="T T T"
Si      -0.00273557       0.00575616      -0.04151872       0.00000000       0.00000000       0.00000000      28.08500000      -0.15322000      -0.57204000      -0.00416000
Si       1.31916989       1.24125758       1.28402346       0.00000000       0.00000000       0.00000000      28.08500000      -0.26365000       0.45077000      -0.24651000
Si       2.58939674       0.02420319       2.58754735       0.00000000       0.00000000       0.00000000      28.08500000       0.35012000       0.18948000      -0.17211000
Si       3.89612953       1.29004983       3.83261813       0.00000000       0.00000000       0.00000000      28.08500000      -0.58387000       0.15242000       0.37746000
Si       5.13931665      -0.03021575       5.14323890       0.00000000       0.00000000       0.00000000      28.08500000       0.51997000      -0.17024000       0.64721000
Si       6.35619252       1.30765671       6.44135629       0.00000000       0.00000000       0.00000000      28.08500000      -0.45064000       0.07476000      -0.35305000
Si       0.04447542       2.62309539       2.51841283       0.00000000       0.00000000       0.00000000      28.08500000       0.24083000      -0.54595000       0.69079000
Si       1.32119419       3.83065565       3.89388839       0.00000000       0.00000000       0.00000000      28.08500000      -0.39099000      -0.05319000       0.19321000
Si       2.63252361       2.59898342       5.15093874       0.00000000       0.00000000       0.00000000      28.08500000      -0.11715000      -0.37216000       0.03754000
Si       3.85005437       3.87513261       6.45082068       0.00000000       0.00000000       0.00000000      28.08500000       0.12024000       0.08476000      -0.68896000
Si       5.10937746       2.61403967       7.72985555       0.00000000       0.00000000       0.00000000      28.08500000       0.16562000      -0.10366000       0.20078000
Si       6.43873443       3.89052033       8.98460481       0.00000000       0.00000000       0.00000000      28.08500000       0.47321000       0.25186000       0.47089000
Si       0.04074334       5.10576074       5.10793438       0.00000000       0.00000000       0.00000000      28.08500000      -0.53054000      -0.12747000       0.08095000
Si       1.34879393       6.42056226       6.42980100       0.00000000       0.00000000       0.00000000      28.08500000       0.14189000      -0.48843000      -0.50838000
Si       2.55041613       5.12030082       7.73792510       0.00000000       0.00000000       0.00000000      28.08500000       0.42450000       0.04182000      -0.26081000
Si       3.84022705       6.40158211       8.99507084       0.00000000       0.00000000       0.00000000      28.08500000       0.46616000       0.90565000       0.16614000
Si       5.12934066       5.13386223      10.25659820       0.00000000       0.00000000       0.00000000      28.08500000       0.02599000      -0.43453000       0.34133000
Si       6.38445250       6.41362549      11.55564793       0.00000000       0.00000000       0.00000000      28.08500000      -0.23983000       0.01128000      -0.30780000
Si       2.56996498       2.53481092      -0.05137783       0.00000000       0.00000000       0.00000000      28.08500000       0.02870000       0.15545000      -0.01685000
Si       3.80115043       3.82837524       1.28971464       0.00000000       0.00000000       0.00000000      28.08500000      -0.77028000      -0.05015000      -0.06019000
Si       5.17942762       2.58563762       2.56003435       0.00000000       0.00000000       0.00000000      28.08500000       0.45209000      -0.17218000      -0.30327000
Si       6.41630759       3.87243620       3.84081370       0.00000000       0.00000000       0.00000000      28.08500000      -0.05608000       0.51267000       0.43415000
Si       7.66972034       2.59140844       5.14043838       0.00000000       0.00000000       0.00000000      28.08500000      -0.13525000      -0.64663000       0.42854000
Si       8.92812254       3.87695101       6.41781177       0.00000000       0.00000000       0.00000000      28.08500000      -0.66797000       0.40009000      -0.14476000
Si       2.55290982       5.13737047       2.59296276       0.00000000       0.00000000       0.00000000      28.08500000       0.13540000      -0.45194000       0.35661000
Si       3.86071376       6.45113159       3.80969945       0.00000000       0.00000000       0.00000000      28.08500000      -0.69729000       0.76576000      -0.08001000
Si       5.12823570       5.09673721       5.15022632       0.00000000       0.00000000       0.00000000      28.08500000      -0.32139000      -0.69813000      -0.49747000
Si       6.37259802       6.42896130       6.38773007       0.00000000       0.00000000       0.00000000      28.08500000      -0.11107000       0.49486000      -0.53936000
Si       7.72375089       5.17917290       7.69501438       0.00000000       0.00000000       0.00000000      28.08500000       0.16387000       0.00816000       0.00278000
Si       8.98915762       6.43356109       9.02227495       0.00000000       0.00000000       0.00000000      28.08500000       0.16768000       0.50704000       0.46195000
Si       2.58568007       7.69945921       5.10047954       0.00000000       0.00000000       0.00000000      28.08500000       0.24735000      -0.69043000      -0.03155000
Si       3.87389592       8.96388806       6.42924276       0.00000000       0.00000000       0.00000000      28.08500000      -0.35410000       0.42492000      -0.11612000
Si       5.12176822       7.68221302       7.74305377       0.00000000       0.00000000       0.00000000      28.08500000       0.33501000       0.12221000      -0.29947000
Si       6.43159108       8.99405542       8.97587242       0.00000000       0.00000000       0.00000000      28.08500000       0.02200000      -0.14716000       0.24854000
Si       7.72102839       7.74285679      10.29654934       0.00000000       0.00000000       0.00000000      28.08500000       0.01745000       0.00001000       0.33926000
Si       8.96293245       8.97605402      11.58688378       0.00000000       0.00000000       0.00000000      28.08500000      -0.29184000       0.00785000       0.34845000
Si       5.10756581       5.09836447       0.01289267       0.00000000       0.00000000       0.00000000      28.08500000      -0.74144000       0.09393000       0.21125000
Si       6.38515539       6.39415571       1.25984368       0.00000000       0.00000000       0.00000000      28.08500000       0.76413000       0.12651000      -0.14444000
Si       7.65922733       5.12660535       2.53414720       0.00000000       0.00000000       0.00000000      28.08500000       0.81333000       0.49914000      -0.09601000
Si       9.01942279       6.38886889       3.79004462       0.00000000       0.00000000       0.00000000      28.08500000      -0.85335000      -0.05266000       0.31256000
Si      10.25834114       5.18172420       5.18032785       0.00000000       0.00000000       0.00000000      28.08500000      -0.10010000      -0.22675000       0.57931000