128
Lattice="10.548372 10.548319 -0.00136 -0.00084 10.547799 10.547882 10.546966 4.7e-05 10.546995" Properties=species:S:1:pos:R:3:momenta:R:3:masses:R:1:forces:R:3 config_type=dia energy=-20877.02895 virial="169.63747052 0.21123641 3.57661811 0.21123641 169.80169551 -1.61818017 3.57661811 -1.61818017 169.71867472" pbc="T T T"
Si       0.01232710      -0.06772898       0.01691939       0.00000000       0.00000000       0.00000000      28.08500000      -0.12898000      -0.17201000       0.02539000
Si       1.31055918       1.30697079       1.30762902       0.00000000       0.00000000       0.00000000      28.08500000      -0.07399000       0.02551000      -0.32556000
Si       2.67185672       0.03574937       2.63979261       0.00000000       0.00000000       0.00000000      28.08500000       0.10743000      -0.23811000       0.38700000
Si       3.99604749       1.29409286       4.00179682       0.00000000       0.00000000       0.00000000      28.08500000       0.14957000       0.55764000      -0.12541000
Si       5.25829930      -0.04514439       5.30907893       0.00000000       0.00000000       0.00000000      28.08500000      -0.00265000      -0.08515000       0.12886000
Si       6.52625951       1.35839298       6.59628917       0.00000000       0.00000000       0.00000000      28.08500000      -0.06019000       0.19414000      -0.05742000
Si       7.89665210       0.05293361       7.89545805       0.00000000       0.00000000       0.00000000      28.08500000      -0.11984000       0.27189000      -0.06071000
Si       9.22585987       1.28133072       9.28639588       0.00000000       0.00000000       0.00000000      28.08500000      -0.06772000      -0.38380000      -0.06559000
Si       0.06235226       2.67202378       2.63126707       0.00000000       0.00000000       0.00000000      28.08500000      -0.09980000      -0.45580000       0.68616000
Si       1.40237729       3.94350026       3.98172965       0.00000000       0.00000000       0.00000000      28.08500000      -0.41549000       0.23909000      -0.35283000
Si       2.67003641       2.62599116       5.33079180       0.00000000       0.00000000       0.00000000      28.08500000       0.27681000      -0.52400000       0.26873000
Si       3.93565112       3.93020792       6.62893236       0.00000000       0.00000000       0.00000000      28.08500000      -0.01710000       0.14506000       0.30760000
Si       5.27173798       2.67726531       7.97275390       0.00000000       0.00000000       0.00000000      28.08500000       0.74033000       0.24050000      -0.25218000
Si       6.58288070       3.98947917       9.24979319       0.00000000       0.00000000       0.00000000      28.08500000       0.01666000      -0.21098000      -0.31939000
Si       7.93996163       2.63985509      10.53756197       0.00000000       0.00000000       0.00000000      28.08500000      -0.35616000       0.58271000      -0.36727000
Si       9.30416116       3.92117534      11.80751852       0.00000000       0.00000000       0.00000000      28.08500000       0.33324000      -0.40233000      -0.56226000
Si      -0.02622422       5.22269817       5.29480907       0.00000000       0.00000000       0.00000000      28.08500000      -0.04110000      -0.12649000       0.21340000
Si       1.32066099       6.56787438       6.62698939       0.00000000       0.00000000       0.00000000      28.08500000      -0.06152000      -0.20205000       0.18916000
Si       2.65158044       5.30164142       7.95657182       0.00000000       0.00000000       0.00000000      28.08500000       0.07202000      -0.14348000       0.13905000
Si       3.99388535       6.63279040       9.20893532       0.00000000       0.00000000       0.00000000      28.08500000       0.05552000       0.11472000       0.25355000
Si       5.28159840       5.33350916      10.54374441       0.00000000       0.00000000       0.00000000      28.08500000      -0.08070000       0.61959000      -0.29649000
Si       6.64933559       6.62329817      11.87689417       0.00000000       0.00000000       0.00000000      28.08500000       0.40304000       0.07638000       0.10220000
Si       7.97736597       5.25324164      13.16990891       0.00000000       0.00000000       0.00000000      28.08500000       0.09920000       0.05730000       0.15431000
Si       9.17749885       6.58787493      14.56821015       0.00000000       0.00000000       0.00000000      28.08500000      -0.56145000      -0.41975000      -0.50359000
Si      -0.00992268       7.86133684       7.89666309       0.00000000       0.00000000       0.00000000      28.08500000       0.14683000       0.31701000      -0.07163000
Si       1.32039221       9.17110319       9.21312927       0.00000000       0.00000000       0.00000000      28.08500000      -0.09378000      -0.36482000      -0.60327000
Si       2.66792013       7.92105027      10.59157900       0.00000000       0.00000000       0.00000000      28.08500000       0.01141000       0.12040000       0.11610000
Si       3.97616196       9.24601653      11.87347045       0.00000000       0.00000000       0.00000000      28.08500000      -0.35857000       0.08134000       0.05645000
Si       5.23961388       7.88134763      13.19660683       0.00000000       0.00000000       0.00000000      28.08500000       0.36640000       0.10373000       0.70194000
Si       6.59655073       9.15712883      14.51775429       0.00000000       0.00000000       0.00000000      28.08500000       0.07066000      -0.40880000      -0.14419000
Si       7.87555842       7.89992257      15.89298376       0.00000000       0.00000000       0.00000000      28.08500000      -0.58318000       0.37078000      -0.19068000
Si       9.25298935       9.28668160      17.15110155       0.00000000       0.00000000       0.00000000      28.08500000      -0.90852000       0.05484000      -0.86045000
Si       2.58025328       2.67247806      -0.02833999       0.00000000       0.00000000       0.00000000      28.08500000      -0.06987000      -0.16865000       0.10509000
Si       3.93276763       3.94603291       1.31903062       0.00000000       0.00000000       0.00000000      28.08500000       0.34540000       0.39110000       0.26869000
Si       5.22665407       2.61560425       2.62000138       0.00000000       0.00000000       0.00000000      28.08500000       0.74574000       0.05538000      -0.72176000
Si       6.56153115       3.97272173       3.89749071       0.00000000       0.00000000       0.00000000      28.08500000       0.21287000       0.21442000       0.14606000
Si       7.86027570       2.66448519       5.24680250       0.00000000       0.00000000       0.00000000      28.08500000      -0.19853000      -0.17037000       0.60235000
Si       9.19861379       3.92081489       6.58640104       0.00000000       0.00000000       0.00000000      28.08500000      -0.38958000      -0.33419000       0.12433000
Si      10.51794199       2.62927726       7.89927705       0.00000000       0.00000000       0.00000000      28.08500000      -0.13791000       0.13891000       0.56850000
Si      11.86066627       3.96952861       9.17795786       0.00000000       0.00000000       0.00000000      28.08500000       0.50189000      -0.05521000       0.27638000
Si       2.68908279       5.32316281       2.67435446       0.00000000       0.00000000       0.00000000      28.08500000       0.06924000       0.03753000      -0.35620000
Si       3.98990854       6.65192597       3.96444250       0.00000000       0.00000000       0.00000000      28.08500000       0.10681000      -0.07570000      -0.13470000
Si       5.26988947       5.26008597       5.27933965       0.00000000       0.00000000       0.00000000      28.08500000      -0.64626000       0.06001000      -0.06535000
Si       6.58257522       6.60789993       6.53702218       0.00000000       0.00000000       0.00000000      28.08500000      -0.12176000       0.12666000      -0.25724000
Si       7.89820824       5.27200725       7.87026800       0.00000000       0.00000000       0.00000000      28.08500000       0.24748000       0.17718000       0.49834000
Si       9.22258151       6.59486284       9.21861093       0.00000000       0.00000000       0.00000000      28.08500000      -0.20902000      -0.26801000      -0.26366000
Si      10.60638209       5.28044890      10.50263148       0.00000000       0.00000000       0.00000000      28.08500000       0.55893000      -0.08744000      -0.02261000
Si      11.85746616       6.52304052      11.93990466       0.00000000       0.00000000       0.00000000      28.08500000       0.35123000      -0.44962000      -0.22324000
Si       2.61156713       7.89720262       5.28349812       0.00000000       0.00000000       0.00000000      28.08500000       0.51071000       0.02398000      -0.36940000
Si       3.90766898       9.22304422       6.55726879       0.00000000       0.00000000       0.00000000      28.08500000       0.32670000       0.18445000       0.11541000
Si       5.27533316       7.96674964       7.83561488       0.00000000       0.00000000       0.00000000      28.08500000      -0.16374000       0.70100000       0.10341000
Si       6.59419204       9.26873112       9.15737760       0.00000000       0.00000000       0.00000000      28.08500000      -0.13342000       0.40955000       0.35665000
Si       7.88430133       7.96194018      10.47308397       0.00000000       0.00000000       0.00000000      28.08500000      -0.34729000      -0.41860000      -0.03883000
Si       9.24559191       9.20417837      11.81046527       0.00000000       0.00000000       0.00000000      28.08500000      -0.61088000       0.16099000      -0.09537000
Si      10.49924763       7.85704890      13.20922176       0.00000000       0.00000000       0.00000000      28.08500000      -0.12148000      -0.01141000      -0.34803000
Si      11.86317340       9.19292338      14.48833288       0.00000000       0.00000000       0.00000000      28.08500000      -0.50134000       0.17973000      -0.01559000
Si       2.58316587      10.53415241       7.88491391       0.00000000       0.00000000       0.00000000      28.08500000       0.10119000      -0.12524000       0.40951000
Si       3.87109409      11.84367408       9.24301803       0.00000000       0.00000000       0.00000000      28.08500000      -0.01980000       0.03052000      -0.12358000
Si       5.27108952      10.57421679      10.50525399       0.00000000       0.00000000       0.00000000      28.08500000       0.39340000       0.36835000       0.02570000
Si       6.61129402      11.80457730      11.84385084       0.00000000       0.00000000       0.00000000      28.08500000       0.03487000       0.51072000      -0.80515000
Si       7.94973152      10.48250298      13.18519488       0.00000000       0.00000000       0.00000000      28.08500000       0.35596000      -0.42206000       0.07284000
Si       9.20116159      11.89457295      14.48660445       0.00000000       0.00000000       0.00000000      28.08500000       0.02414000       0.04858000      -0.28597000
Si      10.52059377      10.52792287      15.79468274       0.00000000       0.00000000       0.00000000      28.08500000       0.16957000       0.03415000       0.08434000
Si      11.83630048      11.87198049      17.11104422       0.00000000       0.00000000       0.00000000      28.08500000      -0.23799000      -0.20113000      -0.35408000
Si       5.24381700       5.28174246       0.01107367       0.00000000       0.00000000       0.00000000      28.08500000      -0.10642000       0.15988000       0.60198000
Si       6.61236054       6.64311326       1.21908941       0.00000000       0.00000000       0.00000000      28.08500000      -0.05062000      -0.17034000       1.03912000
Si       7.89955278       5.26102957       2.57013397       0.00000000       0.00000000       0.00000000      28.08500000      -0.09358000       0.37696000       0.14112000
Si       9.22993431       6.55200847       3.94934077       0.00000000       0.00000000       0.00000000      28.08500000       0.02746000      -0.34170000      -0.48371000
Si      10.59813970       5.30070157       5.29742029       0.00000000       0.00000000       0.00000000      28.08500000      -0.38792000      -0.55667000      -0.34879000
Si      11.84720342       6.67375375       6.62263809       0.00000000       0.00000000       0.00000000      28.08500000       0.33462000       1.01102000       0.04878000
Si      13.17781157       5.31240022       7.87998917       0.00000000       0.00000000       0.00000000      28.08500000      -0.15924000      -0.06347000       0.25960000
Si      14.52616825       6.57300168       9.24025032       0.00000000       0.00000000       0.00000000      28.08500000      -0.00948000       0.38916000      -0.05416000
Si       5.33489952       7.92324059       2.66043893       0.00000000       0.00000000       0.00000000      28.08500000      -0.14089000       0.05314000       0.00930000
Si       6.61492774       9.20995744       4.00792245       0.00000000       0.00000000       0.00000000      28.08500000       0.67473000      -0.17226000      -0.30477000
Si       7.95998433       7.87934058       5.29594523       0.00000000       0.00000000       0.00000000      28.08500000      -0.12013000      -0.44236000       0.35960000
Si       9.22586461       9.25237273       6.59392600       0.00000000       0.00000000       0.00000000      28.08500000      -0.04484000       0.09577000       0.30063000
Si      10.52368693       7.92278610       7.98058924       0.00000000       0.00000000       0.00000000      28.08500000       0.07422000      -0.58784000      -0.12201000
Si      11.92102411       9.18812613       9.28831543       0.00000000       0.00000000       0.00000000      28.08500000       0.21772000      -0.33085000      -0.01286000
Si      13.17260872       7.88298954      10.63314922       0.00000000       0.00000000       0.00000000      28.08500000       0.28133000       0.30674000       0.42381000
Si      14.53698135       9.22650158      11.87810531       0.00000000       0.00000000       0.00000000      28.08500000       0.27604000      -0.07552000      -0.29672000
Si       5.23266057      10.59351977       5.28029995       0.00000000       0.00000000       0.00000000      28.08500000      -0.89528000      -0.21134000      -0.60045000
Si       6.54899247      11.93397061       6.56897264       0.00000000       0.00000000       0.00000000      28.08500000       0.24464000      -0.03373000      -0.01251000
Si       7.88802476      10.59912357       7.86849361       0.00000000       0.00000000       0.00000000      28.08500000       0.23720000      -0.10888000      -0.33985000
Si       9.24961083      11.88382795       9.21532505       0.00000000       0.00000000       0.00000000      28.08500000       0.02716000       0.20370000       0.37027000
Si      10.55544488      10.54927464      10.54694747       0.00000000       0.00000000       0.00000000      28.08500000       0.35877000       0.25173000      -0.03274000
Si      11.83645474      11.88612619      11.90082191       0.00000000       0.00000000       0.00000000      28.08500000       0.04648000      -0.91141000       0.49288000
Si      13.14520762      10.53452903      13.15710974       0.00000000       0.00000000       0.00000000      28.08500000      -0.11505000       0.39769000      -0.58765000
Si      14.50458653      11.86120542      14.43994504       0.00000000       0.00000000       0.00000000      28.08500000      -0.16587000       0.15000000       0.36119000
Si       5.16264250      13.20302164       7.91803797       0.00000000       0.00000000       0.00000000      28.08500000       0.61617000       0.01150000       0.34403000
Si       6.50979744      14.48068985       9.27566183       0.00000000       0.00000000       0.00000000      28.08500000      -0.02810000       0.01795000       0.04551000
Si       7.93227153      13.20902878      10.53084930       0.00000000       0.00000000       0.00000000      28.08500000       0.27180000      -0.50211000       0.13364000
Si       9.25639410      14.49523067      11.84690528       0.00000000       0.00000000       0.00000000      28.08500000       0.05186000      -0.00042000      -0.92029000
Si      10.59614685      13.23917548      13.23546108       0.00000000       0.00000000       0.00000000      28.08500000       0.31118000       0.51892000      -0.01827000
Si      11.95521477      14.55591459      14.56355861       0.00000000       0.00000000       0.00000000      28.08500000      -0.50804000       0.29384000      -0.23151000
Si      13.22181981      13.15961446      15.78681522       0.00000000       0.00000000       0.00000000      28.08500000      -0.79382000      -0.01751000       0.33148000
Si      14.48476070      14.54509167      17.15384401       0.00000000       0.00000000       0.00000000      28.08500000       0.24213000       0.26034000       0.26392000
Si       7.94325319       7.91547047      -0.02754147       0.00000000       0.00000000       0.00000000      28.08500000       0.19525000      -0.30655000      -0.33988000
Si       9.22740102       9.15460452       1.35205115       0.00000000       0.00000000       0.00000000      28.08500000      -0.25835000       0.26865000       0.64459000
Si      10.54128538       7.85424841       2.67241710       0.00000000       0.00000000       0.00000000      28.08500000       0.33422000      -0.03512000      -0.33357000
Si      11.87432059       9.25490874       3.92284973       0.00000000       0.00000000       0.00000000      28.08500000      -0.22184000       0.10767000       0.34399000
Si      13.13982781       7.96886418       5.28071908       0.00000000       0.00000000       0.00000000      28.08500000       0.17422000       0.23024000      -0.39847000
Si      14.52625455       9.20982676       6.61716950       0.00000000       0.00000000       0.00000000      28.08500000      -0.01388000       0.67853000       0.08674000
Si      15.83913559       7.87582232       7.94085897       0.00000000       0.00000000       0.00000000      28.08500000       0.71629000      -0.45300000      -0.19397000
Si      17.16405660       9.26467867       9.21380241       0.00000000       0.00000000       0.00000000      28.08500000      -0.37245000      -0.27013000       0.27520000
Si       7.91632875      10.53208159       2.66708835       0.00000000       0.00000000       0.00000000      28.08500000      -0.17670000       0.49705000      -0.35755000
Si       9.30731320      11.89034020       3.92521588       0.00000000       0.00000000       0.00000000      28.08500000      -0.06541000      -0.29992000      -0.11943000
Si      10.53965215      10.55068054       5.21817684       0.00000000       0.00000000       0.00000000      28.08500000      -0.02587000       0.46324000      -0.37360000
Si      11.80202612      11.81308229       6.62814983       0.00000000       0.00000000       0.00000000      28.08500000       0.01658000      -0.51769000      -0.03295000
Si      13.21512958      10.52814024       7.91689216       0.00000000       0.00000000       0.00000000      28.08500000      -0.09314000      -0.13387000       0.16110000
Si      14.50341826      11.86701733       9.26528077       0.00000000       0.00000000       0.00000000      28.08500000      -0.28250000      -0.34954000       0.53732000
Si      15.80857108      10.51956476      10.55236940       0.00000000       0.00000000       0.00000000      28.08500000      -0.05189000      -0.23232000      -0.17001000
Si      17.16819878      11.81513425      11.86829481       0.00000000       0.00000000       0.00000000      28.08500000       0.39564000       0.39737000      -0.29534000
Si       7.96019383      13.17663871       5.25746294       0.00000000       0.00000000       0.00000000      28.08500000       0.51208000       0.28773000      -0.00935000
Si       9.21144707      14.46795374       6.60418996       0.00000000       0.00000000       0.00000000      28.08500000      -0.40013000      -0.55197000      -0.64995000
Si      10.62057066      13.20135383       7.92797315       0.00000000       0.00000000       0.00000000      28.08500000      -0.04510000      -0.22233000      -0.01545000
Si      11.87670238      14.52946977       9.33370499       0.00000000       0.00000000       0.00000000      28.08500000      -0.34666000       0.00564000       0.73371000
Si      13.18961337      13.18410703      10.57126933       0.00000000       0.00000000       0.00000000      28.08500000       0.33203000       0.02133000       0.09692000
Si      14.51709920      14.54214261      11.82116555       0.00000000       0.00000000       0.00000000      28.08500000       0.02552000       0.20257000      -0.55555000
Si      15.86701121      13.17310863      13.16765689       0.00000000       0.00000000       0.00000000      28.08500000      -0.01185000       0.23051000      -0.03712000
Si      17.16135947      14.52239778      14.47187965       0.00000000       0.00000000       0.00000000      28.08500000      -0.45948000       0.29039000      -0.08426000
Si       7.86640540      15.74675263       7.93706985       0.00000000       0.00000000       0.00000000      28.08500000       0.10845000      -0.06024000       0.52091000
Si       9.18881160      17.10976768       9.14544911       0.00000000       0.00000000       0.00000000      28.08500000      -0.72116000      -0.04610000       0.16541000
Si      10.51642418      15.88540897      10.53565099       0.00000000       0.00000000       0.00000000      28.08500000       0.16154000      -0.06800000       0.38742000
Si      11.88417881      17.16497844      11.80144069       0.00000000       0.00000000       0.00000000      28.08500000       0.09045000      -0.16545000      -0.33999000
Si      13.16591145      15.86104547      13.13171484       0.00000000       0.00000000       0.00000000      28.08500000      -0.33780000       0.20461000       0.37516000
Si      14.43123452      17.14009331      14.48773352       0.00000000       0.00000000       0.00000000      28.08500000       0.28277000       0.17279000       0.16705000
Si      15.76973331      15.83651139      15.75334164       0.00000000       0.00000000       0.00000000      28.08500000      -0.36129000      -0.15084000       0.01544000
Si      17.09557532      17.07910579      17.15654698       0.00000000       0.00000000       0.00000000      28.08500000      -0.12983000       0.05235000      -0.14265000
2
Lattice="3.63193 0.0 0.0 1.850133 3.249816 0.0 2.184053 1.243382 2.888531" Properties=species:S:1:pos:R:3:momenta:R:3:masses:R:1:forces:R:3 config_type=dia energy=-325.783289 virial="4.55844867 -0.47857463 -0.6443588 -0.47857463 2.51838036 0.4690562 -0.6443588 0.4690562 6.76693277" pbc="T T T"
Si       0.00000000       0.00000000       0.00000000       0.00000000       0.00000000       0.00000000      28.08500000      -0.08431000       0.89479000       0.89899000
Si       1.82655940       1.05456300       0.74568872       0.00000000       0.00000000       0.00000000      28.08500000      -0.89899000       0.08431000      -0.89479000
2
Lattice="3.581544 0.0 0.0 1.514613 3.108516 0.0 1.575014 0.773912 2.944956" Properties=species:S:1:pos:R:3:momenta:R:3:masses:R:1:forces:R:3 config_type=dia energy=-325.624041 virial="5.98387195 0.51364759 0.3089228 0.51364759 5.86369564 0.74271649 0.3089228 0.74271649 5.15705287" pbc="T T T"
Si       0.00000000       0.00000000       0.00000000       0.00000000       0.00000000       0.00000000      28.08500000       0.55051000      -0.40174000       0.04151000
Si       1.80670827       1.04310312       0.73758484       0.00000000       0.00000000       0.00000000      28.08500000      -0.04151000      -0.55051000       0.40174000
128
Lattice="10.659432 10.659176 0.000343 -0.000465 10.659984 10.660426 10.666984 -0.007207 10.66717" Properties=species:S:1:pos:R:3:momenta:R:3:masses:R:1:forces:R:3 config_type=dia energy=-20881.412791 virial="112.0828709 1.93479549 -3.89846989 1.93479549 111.8180871 0.29395027 -3.89846989 0.29395027 112.02182865" pbc="T T T"
Si       0.04579349       0.06279435       0.05304790       0.00000000       0.00000000       0.00000000      28.08500000      -0.22058000      -0.17410000       0.03473000
Si       1.40598112       1.37215453       1.34830006       0.00000000       0.00000000       0.00000000      28.08500000      -0.39533000      -0.01245000       0.19131000
Si       2.68620272      -0.01851960       2.63567686       0.00000000       0.00000000       0.00000000      28.08500000      -0.23094000       0.26645000      -0.11357000
Si       3.98973789       1.25996385       4.09577910       0.00000000       0.00000000       0.00000000      28.08500000      -0.01267000      -0.38173000       0.30298000
Si       5.34858475      -0.13522020       5.38929362       0.00000000       0.00000000       0.00000000      28.08500000      -0.05686000       0.36215000      -0.20953000
Si       6.71937789       1.25588630       6.69892067       0.00000000       0.00000000       0.00000000      28.08500000      -0.10911000      -0.27668000       0.06089000
Si       8.09513338      -0.00517364       8.06921066       0.00000000       0.00000000       0.00000000      28.08500000       0.51207000       0.01343000       0.40066000
Si       9.32156426       1.39528486       9.45170481       0.00000000       0.00000000       0.00000000      28.08500000       0.22204000       0.61852000      -0.53516000
Si       0.05325306       2.69744400       2.63400870       0.00000000       0.00000000       0.00000000      28.08500000       0.26082000      -0.13270000       0.44572000
Si       1.39104008       4.05440356       3.96086745       0.00000000       0.00000000       0.00000000      28.08500000      -0.21102000      -0.01467000       0.45377000
Si       2.64344996       2.70202178       5.35130877       0.00000000       0.00000000       0.00000000      28.08500000      -0.11646000      -0.05954000       0.24373000
Si       4.09876529       3.98365447       6.64479870       0.00000000       0.00000000       0.00000000      28.08500000       0.05830000       0.78586000      -0.06065000
Si       5.42491251       2.59781793       8.02852448       0.00000000       0.00000000       0.00000000      28.08500000       0.02342000      -0.32287000      -0.15391000
Si       6.62358239       4.01314790       9.35138463       0.00000000       0.00000000       0.00000000      28.08500000       0.57671000      -0.08370000      -0.25070000
Si       8.02100472       2.79680643      10.70422271       0.00000000       0.00000000       0.00000000      28.08500000       0.03022000      -0.11098000      -0.38914000
Si       9.43766888       4.05858078      11.98666890       0.00000000       0.00000000       0.00000000      28.08500000      -0.03900000      -0.13108000       0.08451000
Si       0.07707103       5.28778232       5.39160984       0.00000000       0.00000000       0.00000000      28.08500000      -0.17531000      -0.54548000      -0.04553000
Si       1.38557976       6.69865100       6.66159490       0.00000000       0.00000000       0.00000000      28.08500000      -0.25176000       0.23719000       0.15671000
Si       2.64315292       5.25951673       7.92838726       0.00000000       0.00000000       0.00000000      28.08500000       0.01368000      -0.13301000      -0.37566000
Si       3.88063396       6.65707875       9.28404561       0.00000000       0.00000000       0.00000000      28.08500000       0.02350000      -0.35005000       0.21745000
Si       5.20290766       5.31736692      10.61554716       0.00000000       0.00000000       0.00000000      28.08500000      -0.36655000       0.16756000       0.09189000
Si       6.67477643       6.59014254      11.91038886       0.00000000       0.00000000       0.00000000      28.08500000      -0.01896000      -0.58792000      -0.15216000
Si       7.98792597       5.30942079      13.31988476       0.00000000       0.00000000       0.00000000      28.08500000      -0.42279000       0.17189000      -0.46456000
Si       9.34804610       6.58018249      14.78557452       0.00000000       0.00000000       0.00000000      28.08500000      -0.26213000      -0.41599000      -0.10505000
Si       0.00428259       7.99088784       7.93673632       0.00000000       0.00000000       0.00000000      28.08500000      -0.04863000      -0.25584000      -0.68155000
Si       1.29420447       9.33287738       9.31996224       0.00000000       0.00000000       0.00000000      28.08500000       0.00357000       0.38170000       0.39660000
Si       2.63350882       8.00473441      10.66798393       0.00000000       0.00000000       0.00000000      28.08500000       0.48909000       0.22979000      -0.06558000
Si       4.04920824       9.32979847      11.97477720       0.00000000       0.00000000       0.00000000      28.08500000      -0.15212000       0.24474000       0.41959000
Si       5.37412754       7.95168894      13.26602530       0.00000000       0.00000000       0.00000000      28.08500000      -0.22633000       0.08098000      -0.26565000
Si       6.69805211       9.24911454      14.68609738       0.00000000       0.00000000       0.00000000      28.08500000       0.06249000       0.33629000      -0.28812000
Si       8.00090185       7.92056725      16.07684690       0.00000000       0.00000000       0.00000000      28.08500000       0.73687000      -0.30792000      -0.27459000
Si       9.36060078       9.33802803      17.27515544       0.00000000       0.00000000       0.00000000      28.08500000      -0.02650000      -0.00083000      -0.08697000
Si       2.72750978       2.65323210      -0.03280858       0.00000000       0.00000000       0.00000000      28.08500000      -0.31289000       0.34941000       0.44101000
Si       3.98452251       3.97296881       1.35198064       0.00000000       0.00000000       0.00000000      28.08500000      -0.34279000      -0.16022000      -0.04195000