2
Lattice="3.935514 0.0 0.0 1.967074 3.256574 0.0 1.728375 1.085623 3.061917" Properties=species:S:1:pos:R:3:momenta:R:3:masses:R:1:forces:R:3 config_type=dia energy=-326.237661 virial="-0.88233585 0.26180002 1.03122757 0.26180002 1.6344984 -0.42361538 1.03122757 -0.42361538 2.17201527" pbc="T T T"
Si       0.00000000       0.00000000       0.00000000       0.00000000       0.00000000       0.00000000      28.08500000      -0.09105000       0.54967000      -0.77721000
Si       1.93079748       1.11474625       0.78824460       0.00000000       0.00000000       0.00000000      28.08500000       0.77721000       0.09105000      -0.54967000
2
Lattice="3.867451 0.0 0.0 1.903427 3.240924 0.0 1.723933 1.067353 3.256666" Properties=species:S:1:pos:R:3:momenta:R:3:masses:R:1:forces:R:3 config_type=dia energy=-326.236413 virial="-0.17514188 0.11222387 0.83258303 0.11222387 2.06032164 -0.37838018 0.83258303 -0.37838018 -1.55166427" pbc="T T T"
Si       0.00000000       0.00000000       0.00000000       0.00000000       0.00000000       0.00000000      28.08500000       0.32830000      -0.74716000      -0.85701000
Si       1.93079670       1.11474656       0.78824344       0.00000000       0.00000000       0.00000000      28.08500000       0.85701000      -0.32830000       0.74716000
16
Lattice="5.406605 5.406597 -0.000505 -0.000162 5.406253 5.406251 5.40642 -0.000321 5.406409" Properties=species:S:1:pos:R:3:momenta:R:3:masses:R:1:forces:R:3 config_type=dia energy=-2610.597084 virial="5.6757967 -0.13934473 1.786857 -0.13934473 5.59229403 0.53716364 1.786857 0.53716364 5.63416867" pbc="T T T"
Si      -0.01505219      -0.01346282       0.00634864       0.00000000       0.00000000       0.00000000      28.08500000      -0.08400000       0.18412000       0.14074000
Si       1.31032386       1.33848896       1.32784608       0.00000000       0.00000000       0.00000000      28.08500000      -0.40005000       0.81706000       0.07632000
Si       2.70169269       0.01069419       2.64338545       0.00000000       0.00000000       0.00000000      28.08500000      -0.09572000      -0.31297000      -0.12613000
Si       4.10023397       1.31824323       4.03029751       0.00000000       0.00000000       0.00000000      28.08500000       0.35926000      -0.68075000      -0.08444000
Si       0.00297216       2.68462224       2.75075312       0.00000000       0.00000000       0.00000000      28.08500000       0.46787000      -0.48026000       0.03933000
Si       1.33150803       4.06779607       4.00047076       0.00000000       0.00000000       0.00000000      28.08500000       0.02369000       0.06811000      -0.56585000
Si       2.72550193       2.73362212       5.39441129       0.00000000       0.00000000       0.00000000      28.08500000       0.31033000       0.79594000      -0.19937000
Si       4.07186412       3.97429175       6.77867449       0.00000000       0.00000000       0.00000000      28.08500000      -0.10616000      -0.12763000       0.25128000
Si       2.69440340       2.74798943      -0.00204994       0.00000000       0.00000000       0.00000000      28.08500000       0.18470000      -0.29957000       0.30076000
Si       4.00630354       4.09343196       1.40242315       0.00000000       0.00000000       0.00000000      28.08500000      -0.63153000      -0.09732000      -0.21234000
Si       5.40797349       2.69324090       2.66464692       0.00000000       0.00000000       0.00000000      28.08500000       0.41314000       0.37188000      -0.09126000
Si       6.76776217       4.06226064       3.99761498       0.00000000       0.00000000       0.00000000      28.08500000       0.05117000       0.15495000      -0.07863000
Si       2.69857012       5.50212329       2.76260461       0.00000000       0.00000000       0.00000000      28.08500000      -0.18935000       0.00539000       0.57652000
Si       4.05818371       6.75349223       4.15243551       0.00000000       0.00000000       0.00000000      28.08500000      -0.57129000      -0.14284000       0.00077000
Si       5.43422171       5.35270234       5.39263372       0.00000000       0.00000000       0.00000000      28.08500000      -0.22543000      -0.09630000       0.35994000
Si       6.76801989       6.74328688       6.75844087       0.00000000       0.00000000       0.00000000      28.08500000       0.44464000       0.09903000      -0.59774000
