2
Lattice="3.935514 0.0 0.0 1.967074 3.256574 0.0 1.728375 1.085623 3.061917" Properties=species:S:1:pos:R:3:momenta:R:3:masses:R:1:forces:R:3 config_type=dia energy=-326.237661 virial="-0.88233585 0.26180002 1.03122757 0.26180002 1.6344984 -0.42361538 1.03122757 -0.42361538 2.17201527" pbc="T T T"
Si       0.00000000       0.00000000       0.00000000       0.00000000       0.00000000       0.00000000      28.08500000      -0.09105000       0.54967000      -0.77721000
Si       1.93079748       1.11474625       0.78824460       0.00000000       0.00000000       0.00000000      28.08500000       0.77721000       0.09105000      -0.54967000
2
Lattice="3.867451 0.0 0.0 1.903427 3.240924 0.0 1.723933 1.067353 3.256666" Properties=species:S:1:pos:R:3:momenta:R:3:masses:R:1:forces:R:3 config_type=dia energy=-326.236413 virial="-0.17514188 0.11222387 0.83258303 0.11222387 2.06032164 -0.37838018 0.83258303 -0.37838018 -1.55166427" pbc="T T T"
Si       0.00000000       0.00000000       0.00000000       0.00000000       0.00000000       0.00000000      28.08500000       0.32830000      -0.74716000      -0.85701000
Si       1.93079670       1.11474656       0.78824344       0.00000000       0.00000000       0.00000000      28.08500000       0.85701000      -0.32830000       0.74716000
16
Lattice="5.406605 5.406597 -0.000505 -0.000162 5.406253 5.406251 5.40642 -0.000321 5.406409" Properties=species:S:1:pos:R:3:momenta:R:3:masses:R:1:forces:R:3 config_type=dia energy=-2610.597084 virial="5.6757967 -0.13934473 1.786857 -0.13934473 5.59229403 0.53716364 1.786857 0.53716364 5.63416867" pbc="T T T"
Si      -0.01505219      -0.01346282       0.00634864       0.00000000       0.00000000       0.00000000      28.08500000      -0.08400000       0.18412000       0.14074000
Si       1.31032386       1.33848896       1.32784608       0.00000000       0.00000000       0.00000000      28.08500000      -0.40005000       0.81706000       0.07632000
Si       2.70169269       0.01069419       2.64338545       0.00000000       0.00000000       0.00000000      28.08500000      -0.09572000      -0.31297000      -0.12613000
Si       4.10023397       1.31824323       4.03029751       0.00000000       0.00000000       0.00000000      28.08500000       0.35926000      -0.68075000      -0.08444000
Si       0.00297216       2.68462224       2.75075312       0.00000000       0.00000000       0.00000000      28.08500000       0.46787000      -0.48026000       0.03933000
Si       1.33150803       4.06779607       4.00047076       0.00000000       0.00000000       0.00000000      28.08500000       0.02369000       0.06811000      -0.56585000
Si       2.72550193       2.73362212       5.39441129       0.00000000       0.00000000       0.00000000      28.08500000       0.31033000       0.79594000      -0.19937000
Si       4.07186412       3.97429175       6.77867449       0.00000000       0.00000000       0.00000000      28.08500000      -0.10616000      -0.12763000       0.25128000
Si       2.69440340       2.74798943      -0.00204994       0.00000000       0.00000000       0.00000000      28.08500000       0.18470000      -0.29957000       0.30076000
Si       4.00630354       4.09343196       1.40242315       0.00000000       0.00000000       0.00000000      28.08500000      -0.63153000      -0.09732000      -0.21234000
Si       5.40797349       2.69324090       2.66464692       0.00000000       0.00000000       0.00000000      28.08500000       0.41314000       0.37188000      -0.09126000
Si       6.76776217       4.06226064       3.99761498       0.00000000       0.00000000       0.00000000      28.08500000       0.05117000       0.15495000      -0.07863000
Si       2.69857012       5.50212329       2.76260461       0.00000000       0.00000000       0.00000000      28.08500000      -0.18935000       0.00539000       0.57652000
Si       4.05818371       6.75349223       4.15243551       0.00000000       0.00000000       0.00000000      28.08500000      -0.57129000      -0.14284000       0.00077000
Si       5.43422171       5.35270234       5.39263372       0.00000000       0.00000000       0.00000000      28.08500000      -0.22543000      -0.09630000       0.35994000
Si       6.76801989       6.74328688       6.75844087       0.00000000       0.00000000       0.00000000      28.08500000       0.44464000       0.09903000      -0.59774000
128
Lattice="11.927753 11.871815 0.597315 0.433045 12.05226 12.049381 11.902289 0.612795 11.84562" Properties=species:S:1:pos:R:3:momenta:R:3:masses:R:1:forces:R:3 config_type=dia energy=-20853.645364 virial="-202.63204932 -35.11972324 -34.86417608 -35.11972324 -192.68209769 -72.32455449 -34.86417608 -72.32455449 -191.91648539" pbc="T T T"
Si      -0.18246826      -0.07010911      -0.13258426       0.00000000       0.00000000       0.00000000      28.08500000       1.16120000       0.04669000      -0.01965000
Si       1.50628200       1.48785181       1.44991648       0.00000000       0.00000000       0.00000000      28.08500000       0.50701000      -0.38416000      -0.04172000
Si       2.98938288       0.15080620       2.94697221       0.00000000       0.00000000       0.00000000      28.08500000       1.36552000      -0.35626000      -0.06429000
Si       4.46593278       1.75479847       4.49905924       0.00000000       0.00000000       0.00000000      28.08500000      -0.43605000      -0.01467000      -0.02342000
Si       5.87993190       0.28661179       5.94023436       0.00000000       0.00000000       0.00000000      28.08500000      -0.12052000       0.18286000       0.06202000
Si       7.53234034       1.77894420       7.49264679       0.00000000       0.00000000       0.00000000      28.08500000       0.10867000       0.30954000      -0.64874000
Si       8.90422536       0.42542816       8.98692226       0.00000000       0.00000000       0.00000000      28.08500000       0.05638000      -0.04571000      -0.38718000
Si      10.49142367       2.04177889      10.49471672       0.00000000       0.00000000       0.00000000      28.08500000       1.42908000      -0.63666000      -0.74903000
Si       0.08361732       2.95614454       2.95336029       0.00000000       0.00000000       0.00000000      28.08500000       0.16429000      -0.60983000       0.98418000
Si       1.59878148       4.51999947       4.55849258       0.00000000       0.00000000       0.00000000      28.08500000       0.12600000       0.06637000      -0.01584000
Si       3.10570861       3.23289112       6.01490978       0.00000000       0.00000000       0.00000000      28.08500000      -0.22784000       0.32156000       0.57223000
Si       4.63761432       4.76208418       7.60310410       0.00000000       0.00000000       0.00000000      28.08500000      -0.05291000      -0.15555000      -0.05808000
Si       6.06490771       3.27487109       9.00277397       0.00000000       0.00000000       0.00000000      28.08500000       0.67331000       0.15730000      -0.26414000
Si       7.59032341       4.87079127      10.57355827       0.00000000       0.00000000       0.00000000      28.08500000       1.26277000      -0.37107000      -0.55970000
Si       9.01846917       3.48557226      11.96307004       0.00000000       0.00000000       0.00000000      28.08500000       0.14129000      -0.02739000       0.24862000
Si      10.63376408       5.00852632      13.47694511       0.00000000       0.00000000       0.00000000      28.08500000      -0.68733000      -0.54334000       0.23672000
Si       0.13177979       6.03959078       5.90844499       0.00000000       0.00000000       0.00000000      28.08500000       0.26004000       0.57199000       0.19367000
Si       1.66823009       7.60682342       7.51718922       0.00000000       0.00000000       0.00000000      28.08500000      -0.05014000      -0.03279000       0.44080000
Si       3.09168764       6.28778839       9.03851745       0.00000000       0.00000000       0.00000000      28.08500000       0.83402000       0.63942000      -0.55511000
Si       4.67438815       7.85491968      10.57174744       0.00000000       0.00000000       0.00000000      28.08500000       1.28176000      -0.10456000      -0.70394000
Si       6.09653349       6.36157431      12.01005762       0.00000000       0.00000000       0.00000000      28.08500000      -0.21148000      -0.38188000       0.16022000
Si       7.75018665       7.96942186      13.62482748       0.00000000       0.00000000       0.00000000      28.08500000      -1.08049000      -0.08676000       0.14345000
Si       9.16569254       6.48365190      14.98659803       0.00000000       0.00000000       0.00000000      28.08500000       0.38563000       0.52872000      -0.33882000
Si      10.72344393       8.14951262      16.53423131       0.00000000       0.00000000       0.00000000      28.08500000      -0.85778000       0.39131000      -0.09214000
Si       0.17926987       9.03275706       9.03350664       0.00000000       0.00000000       0.00000000      28.08500000       0.98886000      -0.20965000      -0.75762000
Si       1.70504892      10.61582984      10.68692382       0.00000000       0.00000000       0.00000000      28.08500000       0.40351000      -0.24172000      -0.58904000
Si       3.22590831       9.26973540      12.09199424       0.00000000       0.00000000       0.00000000      28.08500000       0.13572000      -0.09479000       0.79135000
Si       4.78427874      10.85873166      13.67048601       0.00000000       0.00000000       0.00000000      28.08500000      -0.11672000      -0.07926000       0.46630000
Si       6.21734117       9.47688673      15.07598857       0.00000000       0.00000000       0.00000000      28.08500000       0.08545000       0.50017000      -0.07209000
Si       7.77791032      11.03782624      16.65856250       0.00000000       0.00000000       0.00000000      28.08500000      -0.38326000       0.25961000      -0.46436000
Si       9.28122507       9.60802833      17.99213759       0.00000000       0.00000000       0.00000000      28.08500000       0.29548000       0.24466000      -0.31686000
Si      10.78045381      11.17470337      19.66414333       0.00000000       0.00000000       0.00000000      28.08500000       0.09175000      -0.48322000      -1.05858000
Si       2.90193294       2.92928923       0.04302897       0.00000000       0.00000000       0.00000000      28.08500000       0.18576000      -0.22203000       0.27091000
Si       4.45680218       4.42694924       1.67820127       0.00000000       0.00000000       0.00000000      28.08500000      -0.28767000      -0.24578000       0.54980000
Si       6.03163846       3.11275696       3.10884484       0.00000000       0.00000000       0.00000000      28.08500000      -0.03272000       0.05507000       0.86672000
Si       7.58126335       4.68288629       4.67606057       0.00000000       0.00000000       0.00000000      28.08500000      -0.14341000       0.09989000      -0.67520000
Si       8.98024526       3.22563477       6.08436473       0.00000000       0.00000000       0.00000000      28.08500000       0.78185000      -0.04481000      -0.70814000
Si      10.50684022       4.81797604       7.61053046       0.00000000       0.00000000       0.00000000      28.08500000       0.64493000      -0.57922000      -0.05727000
Si      12.02029186       3.38624408       9.10666855       0.00000000       0.00000000       0.00000000      28.08500000      -0.31911000      -0.01343000       0.12186000
Si      13.50474859       5.05610887      10.62596263       0.00000000       0.00000000       0.00000000      28.08500000      -0.36500000      -0.36182000       0.45733000
Si       3.05150367       5.96232381       3.15380397       0.00000000       0.00000000       0.00000000      28.08500000       0.09215000       0.67517000       1.10862000
Si       4.64645410       7.54986264       4.78731125       0.00000000       0.00000000       0.00000000      28.08500000      -0.44093000       0.40498000      -1.10863000
Si       6.12436678       6.16702843       6.20246299       0.00000000       0.00000000       0.00000000      28.08500000       1.03995000      -0.02912000      -0.52804000
Si       7.70408140       7.78224219       7.73089565       0.00000000       0.00000000       0.00000000      28.08500000       0.57685000       0.06370000       0.48168000
Si       9.10319207       6.29349330       9.16796574       0.00000000       0.00000000       0.00000000      28.08500000      -0.11994000      -0.72659000      -0.00111000
Si      10.67549649       7.97399916      10.66971204       0.00000000       0.00000000       0.00000000      28.08500000      -0.66899000      -0.91148000       0.20810000
Si      12.06324220       6.56671152      12.12543537       0.00000000       0.00000000       0.00000000      28.08500000       0.49021000       0.52980000       0.75194000
Si      13.62767263       8.08228742      13.73601460       0.00000000       0.00000000       0.00000000      28.08500000      -0.43123000      -0.05999000      -1.02389000
Si       3.17750410       9.05078033       6.18296166       0.00000000       0.00000000       0.00000000      28.08500000       1.26669000       0.14485000      -0.68645000
Si       4.68245849      10.63830305       7.80340244       0.00000000       0.00000000       0.00000000      28.08500000       0.24170000      -0.00047000       0.19846000
Si       6.15699281       9.21808658       9.21721514       0.00000000       0.00000000       0.00000000      28.08500000       0.63142000      -0.55258000       0.04471000
Si       7.70249100      10.78265845      10.76298126       0.00000000       0.00000000       0.00000000      28.08500000      -0.28000000      -0.50294000       0.37829000
Si       9.15969855       9.36727420      12.16295212       0.00000000       0.00000000       0.00000000      28.08500000      -0.05569000       0.25288000       0.67641000
Si      10.79395507      10.95749815      13.78860280       0.00000000       0.00000000       0.00000000      28.08500000       0.02186000       0.13192000      -1.59045000
Si      12.25728348       9.59414937      15.22229288       0.00000000       0.00000000       0.00000000      28.08500000       1.06476000       0.18156000      -0.59200000
Si      13.78158232      11.18450078      16.74002514       0.00000000       0.00000000       0.00000000      28.08500000       0.34051000      -0.07331000       0.11394000
Si       3.22753710      12.00667154       9.33535208       0.00000000       0.00000000       0.00000000      28.08500000      -0.32255000      -0.79861000       0.22217000
Si       4.81293745      13.63159936      10.86341655       0.00000000       0.00000000       0.00000000      28.08500000      -0.27970000      -0.48765000       0.27133000
Si       6.26192981      12.27033557      12.26820273       0.00000000       0.00000000       0.00000000      28.08500000      -0.52597000       0.36544000       0.64862000
Si       7.87482251      13.80163751      13.79380394       0.00000000       0.00000000       0.00000000      28.08500000       0.08076000       0.07053000      -0.41405000
Si       9.31778545      12.41357487      15.22914945       0.00000000       0.00000000       0.00000000      28.08500000       1.19258000       0.21919000      -0.96172000
Si      10.89731318      14.01931718      16.78637162       0.00000000       0.00000000       0.00000000      28.08500000       1.14333000      -0.51063000       0.57632000
Si      12.28604398      12.59988416      18.22480768       0.00000000       0.00000000       0.00000000      28.08500000      -0.59669000      -0.99642000      -0.14951000
Si      13.90300558      14.17518757      19.76233699       0.00000000       0.00000000       0.00000000      28.08500000      -0.60468000      -0.33605000       0.19639000
Si       6.06207769       5.83146389       0.30228667       0.00000000       0.00000000       0.00000000      28.08500000      -0.20694000      -0.00146000      -0.00831000
Si       7.52858843       7.47758863       1.83667373       0.00000000       0.00000000       0.00000000      28.08500000      -0.31414000       0.23046000      -0.32602000
Si       9.05518366       6.10258545       3.21455276       0.00000000       0.00000000       0.00000000      28.08500000       0.91641000       0.86800000      -0.25712000
Si      10.60683892       7.70745863       4.80393355       0.00000000       0.00000000       0.00000000      28.08500000       0.87493000      -0.24179000      -0.30540000
Si      11.95390450       6.31987300       6.26190232       0.00000000       0.00000000       0.00000000      28.08500000      -0.29777000      -0.18278000      -0.07132000
Si      13.55748317       7.87088200       7.75151069       0.00000000       0.00000000       0.00000000      28.08500000      -0.65367000       0.06399000       0.29164000
Si      14.96957224       6.43621810       9.22939024       0.00000000       0.00000000       0.00000000      28.08500000       0.16874000      -0.45053000       0.63041000
Si      16.63598578       7.90174869      10.84614004       0.00000000       0.00000000       0.00000000      28.08500000      -0.74959000       0.63949000      -0.53633000
Si       6.11114217       8.99650407       3.36003661       0.00000000       0.00000000       0.00000000      28.08500000       1.36426000       0.98371000      -0.72482000
Si       7.59489940      10.56173810       4.91543401       0.00000000       0.00000000       0.00000000      28.08500000       0.27254000      -0.58981000       0.07613000
Si       9.17365174       9.20201282       6.28244079       0.00000000       0.00000000       0.00000000      28.08500000       0.23049000       0.07850000       0.20537000
Si      10.65537580      10.76892444       7.87139756       0.00000000       0.00000000       0.00000000      28.08500000       0.32017000      -0.31573000       0.48916000
Si      12.13124125       9.31462009       9.27932539       0.00000000       0.00000000       0.00000000      28.08500000      -0.74849000       0.20456000       0.45600000
Si      13.68898603      10.78820665      11.00352400       0.00000000       0.00000000       0.00000000      28.08500000      -0.91702000       0.37490000      -1.03760000
Si      15.22330285       9.39402767      12.37361681       0.00000000       0.00000000       0.00000000      28.08500000       1.17333000       0.58348000      -0.72338000
Si      16.66383195      11.08021965      13.98589325       0.00000000       0.00000000       0.00000000      28.08500000       0.95246000      -0.31717000      -0.34629000
Si       6.16703065      12.06999489       6.40195002       0.00000000       0.00000000       0.00000000      28.08500000      -0.58587000      -0.08234000       0.69196000
Si       7.78863823      13.58462267       7.95924072       0.00000000       0.00000000       0.00000000      28.08500000       0.37830000       0.15706000       0.09360000
Si       9.23495561      12.17690066       9.36822953       0.00000000       0.00000000       0.00000000      28.08500000      -0.67951000       0.11334000       0.22273000
Si      10.77214132      13.76435601      10.90332216       0.00000000       0.00000000       0.00000000      28.08500000      -0.97650000       0.68820000      -0.77223000
Si      12.23140384      12.33340369      12.34784716       0.00000000       0.00000000       0.00000000      28.08500000       1.58951000       0.50615000      -0.87633000
Si      13.74783974      13.93426681      13.91088415       0.00000000       0.00000000       0.00000000      28.08500000       0.68882000      -0.86459000       0.39524000
Si      15.27923535      12.65209156      15.39566605       0.00000000       0.00000000       0.00000000      28.08500000      -0.68331000       0.51633000      -0.15915000
Si      16.81482767      14.26655002      16.95825471       0.00000000       0.00000000       0.00000000      28.08500000       0.30283000      -0.59851000      -0.07983000
Si       6.25193585      15.00023934       9.39310264       0.00000000       0.00000000       0.00000000      28.08500000      -0.64303000       0.62242000       0.26772000
Si       7.89721346      16.53376441      10.93774069       0.00000000       0.00000000       0.00000000      28.08500000      -0.88600000      -0.42103000      -0.71972000
Si       9.35296052      15.17795489      12.37435639       0.00000000       0.00000000       0.00000000      28.08500000       0.68546000       0.69156000      -0.70372000
Si      10.89608649      16.79416139      13.96785839       0.00000000       0.00000000       0.00000000      28.08500000       0.63309000       0.09276000      -0.01405000
Si      12.37653500      15.44304562      15.45873898       0.00000000       0.00000000       0.00000000      28.08500000       0.06278000      -0.15485000      -0.10324000
Si      13.87240796      17.04763459      17.00307492       0.00000000       0.00000000       0.00000000      28.08500000      -0.11344000      -0.17876000       0.33854000
Si      15.28354552      15.61981782      18.41878955       0.00000000       0.00000000       0.00000000      28.08500000      -0.20674000      -0.08899000       0.29566000
Si      16.89205569      17.16855505      19.97608727       0.00000000       0.00000000       0.00000000      28.08500000      -1.33336000       0.07715000      -0.99423000
Si       8.98548911       8.85687306       0.44124776       0.00000000       0.00000000       0.00000000      28.08500000       0.39396000       0.29973000      -1.11431000
Si      10.49482519      10.52479894       1.99818262       0.00000000       0.00000000       0.00000000      28.08500000       0.47698000       0.14471000       0.60135000
Si      11.99257560       9.15708819       3.33638701       0.00000000       0.00000000       0.00000000      28.08500000       1.27824000      -0.29167000       0.08035000
Si      13.58380583      10.73226433       4.94072854       0.00000000       0.00000000       0.00000000      28.08500000       0.16581000      -0.21755000       0.36774000
Si      15.00903462       9.35563486       6.36596323       0.00000000       0.00000000       0.00000000      28.08500000       0.18358000       0.29741000       0.85174000
Si      16.59035755      10.83410255       8.00395804       0.00000000       0.00000000       0.00000000      28.08500000      -0.12680000       0.38965000      -1.13176000
Si      18.02424595       9.42720686       9.41678679       0.00000000       0.00000000       0.00000000      28.08500000      -0.39773000       0.06983000      -0.49597000
Si      19.59143137      10.96752602      10.98866920       0.00000000       0.00000000       0.00000000      28.08500000       0.57183000       0.04442000       0.01385000
Si       9.11390740      11.94277018       3.49260956       0.00000000       0.00000000       0.00000000      28.08500000       0.55902000       0.12116000       0.78236000
Si      10.63129285      13.59585816       5.00216450       0.00000000       0.00000000       0.00000000      28.08500000      -0.43755000      -0.82632000      -0.30005000
Si      12.17059837      12.20018755       6.48132605       0.00000000       0.00000000       0.00000000      28.08500000       0.03469000      -0.13834000       0.86628000
Si      13.69115310      13.71310306       8.09774618       0.00000000       0.00000000       0.00000000      28.08500000      -0.13196000       0.36271000      -0.16001000
Si      15.13702436      12.22836878       9.45995059       0.00000000       0.00000000       0.00000000      28.08500000      -0.05039000       0.11571000      -1.07942000
Si      16.65353704      13.83589561      11.02832216       0.00000000       0.00000000       0.00000000      28.08500000       0.73735000      -0.52668000      -0.12260000
Si      18.10235214      12.38526499      12.42600331       0.00000000       0.00000000       0.00000000      28.08500000       0.62782000       0.11102000       0.07069000
Si      19.67947006      14.04456380      14.02516364       0.00000000       0.00000000       0.00000000      28.08500000      -0.15625000      -1.03785000      -0.16694000
Si       9.19133507      15.02801108       6.54158797       0.00000000       0.00000000       0.00000000      28.08500000      -0.19378000       0.67838000       0.08543000
Si      10.81090288      16.64054912       8.02853662       0.00000000       0.00000000       0.00000000      28.08500000       0.41165000      -0.03059000      -1.05743000
Si      12.29785681      15.26297240       9.52056421       0.00000000       0.00000000       0.00000000      28.08500000      -0.42556000       0.45406000      -1.45908000
Si      13.81018046      16.82596510      11.14890850       0.00000000       0.00000000       0.00000000      28.08500000       1.18844000      -0.52242000      -0.11775000
Si      15.26610098      15.32587391      12.49351411       0.00000000       0.00000000       0.00000000      28.08500000       0.14206000      -0.21409000       0.66479000
Si      16.74433523      16.98606501      14.02776728       0.00000000       0.00000000       0.00000000      28.08500000      -0.80025000      -0.19531000       0.21297000
Si      18.24222256      15.55353456      15.36774520       0.00000000       0.00000000       0.00000000      28.08500000       0.08276000       0.06784000      -0.00364000
Si      19.76499756      17.12914123      17.05741905       0.00000000       0.00000000       0.00000000      28.08500000      -0.36452000       0.26775000      -0.87544000
Si       9.31227209      18.03088384       9.49415398       0.00000000       0.00000000       0.00000000      28.08500000       0.63184000       0.20579000      -1.69644000
Si      10.83410794      19.58860215      11.10323333       0.00000000       0.00000000       0.00000000      28.08500000      -0.18872000       0.11974000       0.45555000
Si      12.37034305      18.29855038      12.59621213       0.00000000       0.00000000       0.00000000      28.08500000       0.61945000      -0.17930000       0.34891000
Si      13.96771290      19.88408968      14.17364734       0.00000000       0.00000000       0.00000000      28.08500000      -0.17944000      -0.23384000       0.08080000
Si      15.31514051      18.42878276      15.59521121       0.00000000       0.00000000       0.00000000      28.08500000      -0.11431000       0.16894000      -0.15949000
Si      16.91898596      20.07558898      17.09689085       0.00000000       0.00000000       0.00000000      28.08500000      -0.38028000       0.29035000      -1.12247000
Si      18.34044559      18.63327326      18.57894220       0.00000000       0.00000000       0.00000000      28.08500000       0.33038000       0.22121000      -0.82810000
Si      19.96068925      20.20284158      20.11445663       0.00000000       0.00000000       0.00000000      28.08500000       0.15021000       0.04062000      -0.72864000
128
Lattice="10.192596 10.175954 -0.219412 -0.192751 10.163433 10.158653 10.164592 -0.189407 10.144167" Properties=species:S:1:pos:R:3:momenta:R:3:masses:R:1:forces:R:3 config_type=dia energy=-20851.883614 virial="338.45074664 41.8990252 52.19282099 41.8990252 338.1256133 41.51996631 52.19282099 41.51996631 339.60442642" pbc="T T T"
Si      -0.11599540      -0.01605988      -0.07392058       0.00000000       0.00000000       0.00000000      28.08500000      -1.22429000      -0.43458000       0.67834000
Si       1.20251877       1.16699130       1.15900866       0.00000000       0.00000000       0.00000000      28.08500000      -1.24544000       0.26603000       0.08411000
Si       2.49110513      -0.01427498       2.50866567       0.00000000       0.00000000       0.00000000      28.08500000      -1.10344000       0.38236000       0.91681000
Si       3.69828896       1.27589009       3.74196700       0.00000000       0.00000000       0.00000000      28.08500000       0.33911000       0.56631000      -0.13647000
Si       4.91518074      -0.06890505       4.97826122       0.00000000       0.00000000       0.00000000      28.08500000       0.42573000      -0.76850000      -0.15900000
Si       6.21812354       1.14201077       6.24123903       0.00000000       0.00000000       0.00000000      28.08500000       0.26384000      -0.12461000       0.29428000
Si       7.46121645      -0.17157393       7.57214082       0.00000000       0.00000000       0.00000000      28.08500000      -0.56313000      -0.05509000      -0.66878000
Si       8.73440611       1.15794635       8.73117398       0.00000000       0.00000000       0.00000000      28.08500000      -1.94817000       0.89203000       1.00107000
Si      -0.07083217       2.46664209       2.41455880       0.00000000       0.00000000       0.00000000      28.08500000      -0.57893000       0.34215000      -1.21127000
Si       1.16875708       3.71480949       3.72921284       0.00000000       0.00000000       0.00000000      28.08500000       0.35380000      -0.49973000       0.88404000
Si       2.41114708       2.47554583       5.07014573       0.00000000       0.00000000       0.00000000      28.08500000       0.22397000       0.48054000      -0.98720000
Si       3.74489679       3.70738263       6.29104196       0.00000000       0.00000000       0.00000000      28.08500000       0.34960000      -0.86985000      -0.31405000
Si       4.96195550       2.38252384       7.55858700       0.00000000       0.00000000       0.00000000      28.08500000       0.08116000      -0.80588000       1.06274000
Si       6.17767110       3.65744490       8.73933677       0.00000000       0.00000000       0.00000000      28.08500000      -1.93498000       1.20369000       0.65853000
Si       7.45471625       2.39907517      10.02784723       0.00000000       0.00000000       0.00000000      28.08500000      -0.05670000      -0.62205000      -0.06335000
Si       8.72993234       3.64022089      11.25770245       0.00000000       0.00000000       0.00000000      28.08500000       0.46892000       1.02847000      -0.56421000