2
Lattice="3.935514 0.0 0.0 1.967074 3.256574 0.0 1.728375 1.085623 3.061917" Properties=species:S:1:pos:R:3:momenta:R:3:masses:R:1:forces:R:3 config_type=HAL_dia energy=-326.237661 virial="-0.88233585 1.6344984 2.17201527 -0.42361538 1.03122757 0.26180002" pbc="T T T"
Si       0.00000000       0.00000000       0.00000000       0.00000000       0.00000000       0.00000000      28.08500000      -0.09105000       0.54967000      -0.77721000
Si       1.93079748       1.11474625       0.78824460       0.00000000       0.00000000       0.00000000      28.08500000       0.77721000       0.09105000      -0.54967000
2
Lattice="3.867451 0.0 0.0 1.903427 3.240924 0.0 1.723933 1.067353 3.256666" Properties=species:S:1:pos:R:3:momenta:R:3:masses:R:1:forces:R:3 config_type=HAL_dia energy=-326.236413 virial="-0.17514188 2.06032164 -1.55166427 -0.37838018 0.83258303 0.11222387" pbc="T T T"
Si       0.00000000       0.00000000       0.00000000       0.00000000       0.00000000       0.00000000      28.08500000       0.32830000      -0.74716000      -0.85701000
Si       1.93079670       1.11474656       0.78824344       0.00000000       0.00000000       0.00000000      28.08500000       0.85701000      -0.32830000       0.74716000
2
Lattice="4.053009 0.0 0.0 1.935709 3.230548 0.0 1.857244 0.963028 3.032233" Properties=species:S:1:pos:R:3:momenta:R:3:masses:R:1:forces:R:3 config_type=HAL_dia energy=-326.12843 virial="-1.87014526 1.96171518 2.88399691 -0.41577308 0.87612272 0.77128738" pbc="T T T"
Si       0.00000000       0.00000000       0.00000000       0.00000000       0.00000000       0.00000000      28.08500000      -0.54204000       0.88643000      -1.28048000
Si       1.93079559       1.11474490       0.78824413       0.00000000       0.00000000       0.00000000      28.08500000       1.28048000       0.54204000      -0.88643000
