6
Lattice="2.010561538 2.010561538 0.0 -5.878121891 5.878121891 0.0 0.0 -0.0 3.305047932" Properties=species:S:1:pos:R:3:forces:R:3 config_type=Ni3Ti3 energy=-40.56333138 force="_JSON [[0.223555, -0.223555, -0.0], [-0.0, -0.0, -0.0], [-0.223555, 0.223555, 0.0], [-0.998041, 0.998041, 0.0], [-0.0, -0.0, -0.0], [0.998041, -0.998041, -0.0]]" virial="4.772020899463859 -1.7487629429872031 0.0 -1.7487629429872031 4.772020899463859 0.0 0.0 0.0 0.4674675346995539" stress="-0.06108556867540082 0.022385522004491357 -0.0 0.022385522004491357 -0.06108556867540082 -0.0 -0.0 -0.0 -0.005983947010294559" free_energy=-40.56333548 pbc="T T T"
Ni      -0.13913000       0.13913000       0.00000000       0.22355500      -0.22355500      -0.00000000
Ni       0.02559000       1.98497000       1.65252000      -0.00000000      -0.00000000      -0.00000000
Ni      -1.82024000       1.82024000       0.00000000      -0.22355500       0.22355500       0.00000000
Ti      -1.60674000       3.61730000       1.65252000      -0.99804100       0.99804100       0.00000000
Ti      -3.91875000       3.91875000       0.00000000      -0.00000000      -0.00000000      -0.00000000
Ti      -4.22020000       6.23076000       1.65252000       0.99804100      -0.99804100      -0.00000000
6
Lattice="1.743792152 2.00352613 -2.00352613 -5.715051691 2.864485968 -2.864485968 0.0 3.012802999 3.012802999" Properties=species:S:1:pos:R:3:forces:R:3 config_type=Hf2Ni2Ti2 energy=-47.85341194 force="_JSON [[0.404682, -0.260251, 0.260251], [-0.404682, 0.260251, -0.260251], [0.448638, -0.033258, 0.033258], [-0.448638, 0.033258, -0.033258], [-0.447186, 0.361767, -0.361767], [0.447186, -0.361767, 0.361767]]" virial="-0.2806838023756666 0.2990548142547211 -0.2990548142547211 0.2990548142547211 -1.377659517088219 0.7353736136411156 -0.2990548142547211 0.7353736136411156 -1.377659517088219" stress="0.0028325279130174664 -0.0030179194585835765 0.0030179194585835765 -0.0030179194585835765 0.013902686951503419 -0.007421042003510928 0.0030179194585835765 -0.007421042003510928 0.013902686951503419" free_energy=-47.85341235 pbc="T T T"
Hf      -5.31041000       2.91787000      -2.91787000       0.40468200      -0.26025100       0.26025100
Hf      -0.19462000       3.26611000      -0.25331000      -0.40468200       0.26025100      -0.26025100
Ni      -1.70877000       1.10708000      -1.10708000       0.44863800      -0.03325800       0.03325800
Ni      -3.79626000       5.07690000      -2.06410000      -0.44863800       0.03325800      -0.03325800
Ti      -3.16498000       3.31153000      -0.29873000      -0.44718600       0.36176700      -0.36176700
Ti      -2.34005000       2.87246000      -2.87246000       0.44718600      -0.36176700       0.36176700
6
Lattice="1.68370687 3.115074342 1.68370687 -4.530855544 1.91403019 2.549929736 -2.549929736 -1.91403019 4.530855544" Properties=species:S:1:pos:R:3:forces:R:3 config_type=Hf2Ni3Ti energy=-44.64218312 force="_JSON [[0.110378, -0.0, -0.110378], [-0.110378, 0.0, 0.110378], [-0.0, -0.0, -0.0], [0.511764, -0.0, -0.511764], [-0.511764, 0.0, 0.511764], [0.0, -0.0, 0.0]]" virial="3.3322600866998418 -0.4697745942462224 -0.14249445011219547 -0.4697745942462224 1.766429150593383 -0.46977403668203116 -0.14249445011219547 -0.46977403668203116 3.3322600866998418" stress="-0.03730212963047626 0.0052587710309946875 0.0015951175212654807 0.0052587710309946875 -0.019773837408875016 0.005258764789485562 0.0015951175212654807 0.005258764789485562 -0.03730212963047626" free_energy=-44.64218373 pbc="T T T"
Hf      -5.37702000       3.11507000       8.74443000       0.11037800      -0.00000000      -0.11037800
Hf      -0.69661000       3.11507000       4.06403000      -0.11037800       0.00000000       0.11037800
Ni      -0.33828000       1.55754000       2.02198000      -0.00000000      -0.00000000      -0.00000000
Ni      -2.96045000       1.55754000       4.64416000       0.51176400      -0.00000000      -0.51176400
Ni      -4.79689000       1.55754000       6.48059000      -0.51176400       0.00000000       0.51176400
Ti      -4.72052000       0.00000000       4.72052000       0.00000000      -0.00000000       0.00000000
6
Lattice="2.019322671 2.019322671 0.0 -5.885975033 5.885975033 0.0 -0.0 0.0 3.607453408" Properties=species:S:1:pos:R:3:forces:R:3 config_type=HfNi3Ti2 energy=-42.49963218 force="_JSON [[0.0, -0.0, 0.0], [-0.182356, 0.182356, 0.0], [0.0, -0.0, 0.0], [0.182356, -0.182356, -0.0], [0.442325, -0.442325, -0.0], [-0.442325, 0.442325, 0.0]]" virial="2.763887501885614 -2.0111940702882474 0.0 -2.0111940702882474 2.763887501885614 -0.0 0.0 -0.0 -3.14410289597846" stress="-0.03223038542043866 0.023453038517836797 -0.0 0.023453038517836797 -0.03223038542043866 0.0 -0.0 0.0 0.036664172499701476" free_energy=-42.49963195 pbc="T T T"
Hf       0.00000000       0.00000000       0.00000000       0.00000000      -0.00000000       0.00000000
Ni      -2.06936000       2.06936000       0.00000000      -0.18235600       0.18235600       0.00000000
Ni      -1.93333000       3.95265000       1.80373000       0.00000000      -0.00000000       0.00000000
Ni      -3.81661000       3.81661000       0.00000000       0.18235600      -0.18235600      -0.00000000
Ti      -0.31303000       2.33236000       1.80373000       0.44232500      -0.44232500      -0.00000000
Ti      -3.55362000       5.57294000       1.80373000      -0.44232500       0.44232500       0.00000000
6
Lattice="2.027232203 3.99110903 2.027232203 -4.054127283 1.919686945 1.985047458 -1.985047458 -1.919686945 4.054127283" Properties=species:S:1:pos:R:3:forces:R:3 config_type=Hf2Ni2Ti2 energy=-46.59733391 force="_JSON [[-0.648211, 0.0, 0.648211], [0.648211, -0.0, -0.648211], [0.227669, 0.0, -0.227669], [-0.227669, 0.0, 0.227669], [-0.696615, -0.0, 0.696615], [0.696615, 0.0, -0.696615]]" virial="0.10393164068390706 -0.7317903206110499 -1.8199528511302634 -0.7317903206110499 -5.801033465906194 -0.7317903206110499 -1.8199528511302634 -0.7317903206110499 0.10393164068390706" stress="-0.0010728342791206957 0.007553905008273606 0.018786461872705915 0.007553905008273606 0.0598811633839065 0.007553905008273606 0.018786461872705915 0.007553905008273606 -0.0010728342791206957" free_energy=-46.59733208 pbc="T T T"
Hf      -5.87359000      -0.00000000       5.87359000      -0.64821100       0.00000000       0.64821100
Hf      -0.15849000       1.99555000       2.18573000       0.64821100      -0.00000000      -0.64821100
Ni      -2.04632000       0.00000000       2.04632000       0.22766900       0.00000000      -0.22766900
Ni      -3.98577000       1.99555000       6.01300000      -0.22766900       0.00000000       0.22766900
Ti      -1.96861000       1.99555000       3.99585000      -0.69661500      -0.00000000       0.69661500
Ti      -4.06347000      -0.00000000       4.06347000       0.69661500       0.00000000      -0.69661500
6
Lattice="2.073559893 2.073559893 0.0 -6.048863416 6.048863416 0.0 0.0 0.0 3.737329683" Properties=species:S:1:pos:R:3:forces:R:3 config_type=Hf2Ni2Ti2 energy=-46.54233095 force="_JSON [[-1.314606, 1.314606, 0.0], [1.314606, -1.314606, -0.0], [-0.061418, 0.061418, 0.0], [0.061418, -0.061418, -0.0], [-0.628804, 0.628804, 0.0], [0.628804, -0.628804, -0.0]]" virial="3.202235439555215 -2.322047871906584 -0.0 -2.322047871906584 3.202235439555215 -0.0 -0.0 -0.0 -2.0011959293343295" stress="-0.03415635285744896 0.02476791227935012 0.0 0.02476791227935012 -0.03415635285744896 0.0 0.0 0.0 0.021345574236954937" free_energy=-46.54233192 pbc="T T T"
Hf      -5.82300000       5.82300000       0.00000000      -1.31460600       1.31460600       0.00000000
Hf      -0.19722000       2.27078000       1.86866000       1.31460600      -1.31460600      -0.00000000
Ni      -2.12962000       2.12962000       0.00000000      -0.06141800       0.06141800       0.00000000
Ni      -3.89061000       5.96417000       1.86866000       0.06141800      -0.06141800      -0.00000000
Ti      -1.98119000       4.05475000       1.86866000      -0.62880400       0.62880400       0.00000000
Ti      -4.03904000       4.03904000       0.00000000       0.62880400      -0.62880400      -0.00000000
6
Lattice="1.63732488 1.321320366 -1.321320366 -0.0 8.736096363 8.736096363 1.63732488 -1.321320366 1.321320366" Properties=species:S:1:pos:R:3:forces:R:3 config_type=Ni3Ti3 energy=-39.36996312 force="_JSON [[-0.0, 0.103823, 0.103823], [0.0, -0.0, 0.0], [0.0, -0.103823, -0.103823], [0.0, -0.395359, -0.395359], [-0.0, 0.0, 0.0], [-0.0, 0.395359, 0.395359]]" virial="3.665603143088004 -0.0 -0.0 -0.0 0.43568263055815093 -2.195029110076637 -0.0 -2.195029110076637 0.43568263055815093" stress="-0.04848697015764119 0.0 0.0 0.0 -0.00576301631176567 0.029034870061187202 0.0 0.029034870061187202 -0.00576301631176567" free_energy=-39.36995819 pbc="T T T"
Ni       0.00000000       0.16013000       0.16013000      -0.00000000       0.10382300       0.10382300
Ni       1.63732000       1.45602000       1.45602000       0.00000000      -0.00000000       0.00000000
Ni       3.27465000       2.75191000       2.75191000       0.00000000      -0.10382300      -0.10382300
Ti       1.63732000       4.15755000       4.15755000       0.00000000      -0.39535900      -0.39535900
Ti      -0.00000000       5.82406000       5.82406000      -0.00000000       0.00000000       0.00000000
Ti       1.63732000       7.49058000       7.49058000      -0.00000000       0.39535900       0.39535900
6
Lattice="1.38090473 1.662642089 -1.662642089 -5.921106546 2.969020444 -2.969020444 -0.0 2.997824241 2.997824241" Properties=species:S:1:pos:R:3:forces:R:3 config_type=Ni2Ti4 energy=-43.05372951 force="_JSON [[-0.54221, -0.150349, 0.150349], [0.54221, 0.150349, -0.150349], [-0.27872, -0.325454, 0.325454], [0.047102, -0.042066, 0.042066], [-0.047102, 0.042066, -0.042066], [0.27872, 0.325454, -0.325454]]" virial="0.1777622053261905 0.5908621186228025 -0.5908621186228025 0.5908621186228025 2.4406538039594 1.018071377631891 -0.5908621186228025 1.018071377631891 2.4406538039594" stress="-0.0021261638422230057 -0.007067135953055096 0.007067135953055096 -0.007067135953055096 -0.029191975087394805 -0.012176865987632816 0.007067135953055096 -0.012176865987632816 -0.029191975087394805" free_energy=-43.05372692 pbc="T T T"
Ni      -4.51621000       4.44148000      -4.44148000      -0.54221000      -0.15034900       0.15034900
Ni      -0.09024000       3.29236000      -0.29454000       0.54221000       0.15034900      -0.15034900
Ti      -1.20153000       1.45108000      -1.45108000      -0.27872000      -0.32545400       0.32545400
Ti      -1.74399000       4.62617000      -1.62835000       0.04710200      -0.04206600       0.04206600
Ti      -2.86246000       3.10767000      -3.10767000      -0.04710200       0.04206600      -0.04206600
Ti      -4.78583000       4.62012000      -1.62229000       0.27872000       0.32545400      -0.32545400
6
Lattice="-3.047401732 3.047401732 0.0 0.0 -3.047401732 -3.047401732 -2.992229076 -2.992229076 2.992229076" Properties=species:S:1:pos:R:3:forces:R:3 config_type=Ni2Ti4 energy=-42.86782322 force="_JSON [[-0.157664, -0.157664, 0.157664], [0.157664, 0.157664, -0.157664], [-0.779099, -0.779099, 0.779099], [0.235121, 0.235121, -0.235121], [-0.235121, -0.235121, 0.235121], [0.779099, 0.779099, -0.779099]]" virial="0.8038875334063984 0.35757246906821866 -0.35757246906821866 0.35757246906821866 0.8038875334063984 -0.35757246906821866 -0.35757246906821866 -0.35757246906821866 0.8038875334063984" stress="-0.009643169048544389 -0.0042893211090351225 0.0042893211090351225 -0.0042893211090351225 -0.009643169048544389 0.0042893211090351225 0.0042893211090351225 0.0042893211090351225 -0.009643169048544389" free_energy=-42.86782019 pbc="T T T"
Ni      -2.96921000      -2.96921000       2.96921000      -0.15766400      -0.15766400       0.15766400
Ni      -1.53752000      -1.53752000      -1.50988000       0.15766400       0.15766400      -0.15766400
Ti      -2.95499000       0.09241000      -0.09241000      -0.77909900      -0.77909900       0.77909900
Ti      -1.54721000      -1.54721000       1.54721000       0.23512100       0.23512100      -0.23512100
Ti      -2.95953000      -2.95953000      -0.08788000      -0.23512100      -0.23512100       0.23512100
Ti      -4.59915000      -1.55174000       1.55174000       0.77909900       0.77909900      -0.77909900
6
Lattice="1.764823898 1.642583767 -1.642583767 -0.0 8.141090208 8.141090208 1.764823898 -1.642583767 1.642583767" Properties=species:S:1:pos:R:3:forces:R:3 config_type=Hf2Ni2Ti2 energy=-46.93385591 force="_JSON [[-0.0, 0.116638, 0.116638], [0.0, -0.116638, -0.116638], [0.0, -0.243317, -0.243317], [-0.0, 0.243317, 0.243317], [0.0, -0.010079, -0.010079], [-0.0, 0.010079, 0.010079]]" virial="7.529714946138067 -0.0 -0.0 -0.0 -1.3879837166722095 1.6281507309917405 -0.0 1.6281507309917405 -1.3879837166722095" stress="-0.07976402747419245 0.0 0.0 0.0 0.014703235395007456 -0.017247380620372614 0.0 -0.017247380620372614 0.014703235395007456" free_energy=-46.93385317 pbc="T T T"
Hf       0.00000000       7.93482000       7.93482000      -0.00000000       0.11663800       0.11663800
Hf       1.76482000       1.56312000       1.56312000       0.00000000      -0.11663800      -0.11663800
Ni       3.52965000       2.94407000       2.94407000       0.00000000      -0.24331700      -0.24331700
Ni       1.76482000       6.55387000       6.55387000      -0.00000000       0.24331700       0.24331700
Ti       1.76482000       4.07063000       4.07063000       0.00000000      -0.01007900      -0.01007900
Ti       3.52965000       5.42731000       5.42731000      -0.00000000       0.01007900       0.01007900
6
Lattice="0.0 3.099298511 -0.0 -8.10850346 -0.0 0.0 0.0 -0.0 3.099298511" Properties=species:S:1:pos:R:3:forces:R:3 config_type=Ni3Ti3 energy=-40.67098262 force="_JSON [[-0.235805, -0.0, 0.0], [-0.0, -0.0, 0.0], [0.235805, 0.0, -0.0], [-0.911491, -0.0, 0.0], [0.0, -0.0, 0.0], [0.911491, 0.0, -0.0]]" virial="8.227275534761866 0.0 0.0 0.0 1.935806689233318 -0.0 0.0 -0.0 1.935806689233318" stress="-0.10563030180498813 -0.0 -0.0 -0.0 -0.024853895309068286 0.0 -0.0 0.0 -0.024853895309068286" free_energy=-40.67098212 pbc="T T T"
Ni      -0.12347000       3.09930000       3.09930000      -0.23580500      -0.00000000       0.00000000
Ni      -1.35142000       1.54965000       1.54965000      -0.00000000      -0.00000000       0.00000000
Ni      -2.57937000       3.09930000       3.09930000       0.23580500       0.00000000      -0.00000000
Ti      -3.67511000       1.54965000       1.54965000      -0.91149100      -0.00000000       0.00000000
Ti      -5.40567000      -0.00000000       0.00000000       0.00000000      -0.00000000       0.00000000
Ti      -7.13623000       1.54965000       1.54965000       0.91149100       0.00000000      -0.00000000
6
Lattice="-0.0 3.097351491 0.0 -8.511463129 0.0 0.0 -0.0 0.0 3.097351491" Properties=species:S:1:pos:R:3:forces:R:3 config_type=HfNi3Ti2 energy=-42.7663319 force="_JSON [[-0.0, -0.0, -0.0], [-0.037093, 0.0, 0.0], [0.0, -0.0, -0.0], [0.037093, -0.0, -0.0], [0.794891, -0.0, -0.0], [-0.794891, 0.0, 0.0]]" virial="6.937129713034844 -0.0 -0.0 -0.0 2.057806630359462 0.0 -0.0 0.0 2.057806630359462" stress="-0.08495610798017705 0.0 0.0 0.0 -0.0252010917372138 -0.0 0.0 -0.0 -0.0252010917372138" free_energy=-42.76633169 pbc="T T T"
Hf      -0.00000000       3.09735000       0.00000000      -0.00000000      -0.00000000      -0.00000000
Ni      -3.03989000       3.09735000       0.00000000      -0.03709300       0.00000000       0.00000000
Ni      -4.25573000       1.54868000       1.54868000       0.00000000      -0.00000000      -0.00000000
Ni      -5.47158000       3.09735000       3.09735000       0.03709300      -0.00000000      -0.00000000
Ti      -1.93672000       1.54868000       1.54868000       0.79489100      -0.00000000      -0.00000000
Ti      -6.57474000       1.54868000       1.54868000      -0.79489100       0.00000000       0.00000000
6
Lattice="2.09812562 2.09812562 -0.0 -6.243952913 6.243952913 0.0 -0.0 0.0 3.597101552" Properties=species:S:1:pos:R:3:forces:R:3 config_type=Hf2Ni2Ti2 energy=-46.95759306 force="_JSON [[0.078764, -0.078764, -0.0], [-0.078764, 0.078764, 0.0], [0.0, -0.0, -0.0], [0.0, -0.0, -0.0], [0.881396, -0.881396, -0.0], [-0.881396, 0.881396, 0.0]]" virial="2.9037183332163834 -1.9314736675787763 0.0 -1.9314736675787763 2.9037183332163834 -0.0 0.0 -0.0 -2.4702272007389032" stress="-0.030809218758511548 0.0204934459620346 -0.0 0.0204934459620346 -0.030809218758511548 0.0 -0.0 0.0 0.02620976330252041" free_energy=-46.95759649 pbc="T T T"
Hf      -6.24095000       6.24095000       0.00000000       0.07876400      -0.07876400      -0.00000000
Hf      -2.08432000       2.08432000       0.00000000      -0.07876400       0.07876400       0.00000000
Ni       0.00840000       2.08972000       1.79855000       0.00000000      -0.00000000      -0.00000000
Ni      -4.16264000       4.16264000       0.00000000       0.00000000      -0.00000000      -0.00000000
Ti      -2.27840000       4.37653000       1.79855000       0.88139600      -0.88139600      -0.00000000
Ti      -3.94874000       6.04687000       1.79855000      -0.88139600       0.88139600       0.00000000
6
Lattice="2.260887128 2.260887128 0.0 -2.296132918 2.296132918 -4.124044028 -3.379301917 3.379301917 3.25456227" Properties=species:S:1:pos:R:3:forces:R:3 config_type=Hf2Ni2Ti2 energy=-47.01978742 force="_JSON [[0.353344, -0.353344, -0.085156], [-0.353344, 0.353344, 0.085156], [0.312692, -0.312692, -0.176384], [-0.312692, 0.312692, 0.176384], [-0.362687, 0.362687, -0.197965], [0.362687, -0.362687, 0.197965]]" virial="2.7299985296474705 -0.31099800454236826 -1.0944812182674557 -0.31099800454236826 2.7299985296474705 1.0944812182674557 -1.0944812182674557 1.0944812182674557 1.7908842898161088" stress="-0.028200130630691572 0.0032125234716194905 0.011305688626860285 0.0032125234716194905 -0.028200130630691572 -0.011305688626860285 0.011305688626860285 -0.011305688626860285 -0.01849933996989703" free_energy=-47.01978974 pbc="T T T"
Hf      -3.18760000       3.18760000       3.06968000       0.35334400      -0.35334400      -0.08515600
Hf      -2.10114000       4.36203000      -2.16696000      -0.35334400       0.35334400       0.08515600
Ni      -3.72034000       3.72034000      -0.13660000       0.31269200      -0.31269200      -0.17638400
Ni      -1.56840000       3.82929000       1.03932000      -0.31269200       0.31269200       0.17638400
Ti      -3.36836000       5.62925000       1.17794000      -0.36268700       0.36268700      -0.19796500
Ti      -1.92037000       1.92037000      -0.27523000       0.36268700      -0.36268700       0.19796500
6
Lattice="1.851096281 1.650081206 -1.650081206 -0.0 7.838186685 7.838186685 1.851096281 -1.650081206 1.650081206" Properties=species:S:1:pos:R:3:forces:R:3 config_type=Hf2Ni2Ti2 energy=-47.26999644 force="_JSON [[-0.0, 0.300736, 0.300736], [0.0, -0.300736, -0.300736], [0.0, -0.194369, -0.194369], [-0.0, 0.194369, 0.194369], [0.0, -0.046268, -0.046268], [-0.0, 0.046268, 0.046268]]" virial="7.476212535087357 -0.0 -0.0 -0.0 -1.9216775102952155 1.3258839622487173 -0.0 1.3258839622487173 -1.9216775102952155" stress="-0.0780677600560329 0.0 0.0 0.0 0.020066451839714672 -0.013845084063780643 0.0 -0.013845084063780643 0.020066451839714672" free_energy=-47.26999566 pbc="T T T"
Hf       3.70219000       7.60540000       7.60540000      -0.00000000       0.30073600       0.30073600
Hf       1.85110000       1.53916000       1.53916000       0.00000000      -0.30073600      -0.30073600
Ni       3.70219000       2.87479000       2.87479000       0.00000000      -0.19436900      -0.19436900
Ni       1.85110000       6.26976000       6.26976000      -0.00000000       0.19436900       0.19436900
Ti       1.85110000       3.92384000       3.92384000       0.00000000      -0.04626800      -0.04626800
Ti       3.70219000       5.22072000       5.22072000      -0.00000000       0.04626800       0.04626800
6
Lattice="1.68491901 3.3860197 1.68491901 -4.033435125 2.250603168 2.241388508 -2.241388508 -2.250603168 4.033435125" Properties=species:S:1:pos:R:3:forces:R:3 config_type=HfNi3Ti2 energy=-42.5480892 force="_JSON [[0.0, 0.0, 0.0], [0.260677, -0.0, -0.260677], [0.0, 0.0, 0.0], [-0.260677, 0.0, 0.260677], [-0.076484, 0.0, 0.076484], [0.076484, -0.0, -0.076484]]" virial="2.011573981164574 1.1410388714705701 -0.5181699573339074 1.1410388714705701 2.70704318307103 1.1410388714705701 -0.5181699573339074 1.1410388714705701 2.011573981164574" stress="-0.023482042810744775 -0.013319879795364946 0.006048839980676368 -0.013319879795364946 -0.03160057970058229 -0.013319879795364946 0.006048839980676368 -0.013319879795364946 -0.023482042810744775" free_energy=-42.54809491 pbc="T T T"
Hf      -2.24139000      -2.25060000       4.03344000       0.00000000       0.00000000       0.00000000
Ni      -0.48154000       1.69301000       2.16646000       0.26067700      -0.00000000      -0.26067700
Ni      -2.29495000       1.69301000       3.97987000       0.00000000       0.00000000       0.00000000
Ni      -4.10837000       1.69301000       5.79328000      -0.26067700       0.00000000       0.26067700
Ti      -2.11959000      -0.00000000       2.11959000      -0.07648400       0.00000000       0.07648400
Ti      -4.15523000      -0.00000000       4.15523000       0.07648400      -0.00000000      -0.07648400
6
Lattice="2.072684014 2.072684014 0.0 -6.028329481 6.028329481 0.0 -0.0 0.0 3.672839557" Properties=species:S:1:pos:R:3:forces:R:3 config_type=Hf2Ni2Ti2 energy=-46.52232271 force="_JSON [[-1.305427, 1.305427, 0.0], [1.305427, -1.305427, -0.0], [-0.174911, 0.174911, 0.0], [0.174911, -0.174911, -0.0], [-0.679708, 0.679708, 0.0], [0.679708, -0.679708, -0.0]]" virial="5.615937308280125 -2.310433852357705 0.0 -2.310433852357705 5.615937308280125 0.0 0.0 0.0 0.6981684385801544" stress="-0.06118714923642456 0.02517279897634617 -0.0 0.02517279897634617 -0.06118714923642456 -0.0 -0.0 -0.0 -0.007606733141515081" free_energy=-46.52231913 pbc="T T T"
Hf      -5.81489000       5.81489000       0.00000000      -1.30542700       1.30542700       0.00000000
Hf      -0.18182000       2.25451000       1.83642000       1.30542700      -1.30542700      -0.00000000
Ni      -2.09794000       2.09794000       0.00000000      -0.17491100       0.17491100       0.00000000
Ni      -3.89877000       5.97145000       1.83642000       0.17491100      -0.17491100      -0.00000000
Ti      -1.96834000       4.04102000       1.83642000      -0.67970800       0.67970800       0.00000000
Ti      -4.02837000       4.02837000       0.00000000       0.67970800      -0.67970800      -0.00000000
6
Lattice="2.007763163 3.88202025 2.007763163 -4.044450981 1.828209231 1.940686279 -1.940686279 -1.828209231 4.044450981" Properties=species:S:1:pos:R:3:forces:R:3 config_type=Hf2Ni2Ti2 energy=-46.55838781 force="_JSON [[-0.841208, 0.0, 0.841208], [0.841208, -0.0, -0.841208], [0.22566, 0.0, -0.22566], [-0.22566, 0.0, 0.22566], [-0.756656, 0.0, 0.756656], [0.756656, -0.0, -0.756656]]" virial="3.7618278322049563 -0.8307307639450033 -2.479144750043146 -0.8307307639450033 -0.6849316390759841 -0.8307307639450033 -2.479144750043146 -0.8307307639450033 3.7618278322049563" stress="-0.04052908347119479 0.008950105633697187 0.026709745632558412 0.008950105633697187 0.00737929879047702 0.008950105633697187 0.026709745632558412 0.008950105633697187 -0.04052908347119479" free_energy=-46.55838623 pbc="T T T"
Hf      -5.81745000      -0.00000000       5.81745000      -0.84120800       0.00000000       0.84120800
Hf      -0.16133000       1.94101000       2.16909000       0.84120800      -0.00000000      -0.84120800
Ni      -2.01903000       0.00000000       2.01903000       0.22566000       0.00000000      -0.22566000
Ni      -3.95975000       1.94101000       5.96751000      -0.22566000       0.00000000       0.22566000
Ti      -1.94858000       1.94101000       3.95634000      -0.75665600       0.00000000       0.75665600
Ti      -4.03020000       0.00000000       4.03020000       0.75665600      -0.00000000      -0.75665600
6
Lattice="2.270869566 2.270869566 -0.0 -2.304470021 2.304470021 -4.237713232 -3.320458353 3.320458353 3.21466283" Properties=species:S:1:pos:R:3:forces:R:3 config_type=Hf2Ni2Ti2 energy=-47.01416469 force="_JSON [[0.277446, -0.277446, -0.296946], [-0.277446, 0.277446, 0.296946], [0.269335, -0.269335, 0.065022], [-0.269335, 0.269335, -0.065022], [-0.327633, 0.327633, -0.23187], [0.327633, -0.327633, 0.23187]]" virial="2.8049100275982237 -1.1638515789834578 -1.6180927610794344 -1.1638515789834578 2.8049100275982237 1.6180927610794344 -1.6180927610794344 1.6180927610794344 1.7706911634729845" stress="-0.028752641501533012 0.011930438724324694 0.016586785535998256 0.011930438724324694 -0.028752641501533012 -0.016586785535998256 0.016586785535998256 -0.016586785535998256 -0.01815104503614537" free_energy=-47.01416631 pbc="T T T"
Hf      -5.41936000       5.41936000      -1.18733000       0.27744600      -0.27744600      -0.29694600
Hf      -2.09735000       4.36821000      -2.29560000      -0.27744600       0.27744600       0.29694600
Ni      -3.67013000       3.67013000      -0.26680000       0.26933500      -0.26933500       0.06502200
Ni      -1.54210000       3.81297000       1.02159000      -0.26933500       0.26933500      -0.06502200
Ti      -3.30745000       5.57832000       1.07718000      -0.32763300       0.32763300      -0.23187000
Ti      -1.90478000       1.90478000      -0.32239000       0.32763300      -0.32763300       0.23187000
6
Lattice="2.181806886 2.181806886 0.0 -2.181806886 2.181806886 0.0 0.0 0.0 8.707957775" Properties=species:S:1:pos:R:3:forces:R:3 config_type=HfNi3Ti2 energy=-42.79745875 force="_JSON [[0.0, -0.0, 0.0], [-0.0, -0.0, -0.131604], [0.0, -0.0, 0.0], [0.0, 0.0, 0.131604], [-0.0, -0.0, -1.308571], [0.0, 0.0, 1.308571]]" virial="3.127901949202172 -0.0 0.0 -0.0 3.127901949202172 0.0 0.0 0.0 6.520877063439877" stress="-0.03772890529997678 0.0 -0.0 0.0 -0.03772890529997678 -0.0 -0.0 -0.0 -0.07865513599685152" free_energy=-42.79746103 pbc="T T T"
Hf       0.00000000       0.00000000       0.00000000       0.00000000      -0.00000000       0.00000000
Ni       0.00000000       0.00000000       3.14801000      -0.00000000      -0.00000000      -0.13160400
Ni      -0.00000000       2.18181000       4.35398000       0.00000000      -0.00000000       0.00000000
Ni       0.00000000       0.00000000       5.55995000       0.00000000       0.00000000       0.13160400
Ti      -0.00000000       2.18181000       2.04555000      -0.00000000      -0.00000000      -1.30857100
Ti      -0.00000000       2.18181000       6.66240000       0.00000000       0.00000000       1.30857100
