4
Lattice="1.573713644 1.542602838 -1.542602838 -4.555024145 1.519365623 -1.519365623 0.0 3.068097413 3.068097413" Properties=species:S:1:pos:R:3:forces:R:3 config_type=HfNi2Ti energy=-29.06077186 force="_JSON [[-0.924059, 0.172216, -0.172216], [0.082532, -0.399527, 0.399527], [-0.510686, 0.518206, -0.518206], [1.352213, -0.290895, 0.290895]]" virial="-1.2579909967538296 1.6322365022003917 -1.6322365022003917 1.6322365022003917 0.11493047407165531 -1.0458141848170552 -1.6322365022003917 -1.0458141848170552 0.11493047407165531" stress="0.021768892110399715 -0.028245019564324927 0.028245019564324927 -0.028245019564324927 -0.001988813192398819 0.018097280676535012 0.028245019564324927 0.018097280676535012 -0.001988813192398819" free_energy=-29.06077371 pbc="T T T"
Hf       1.49518000       1.55922000      -1.55922000      -0.92405900       0.17221600      -0.17221600
Ni       0.05301000       3.05512000       0.01297000       0.08253200      -0.39952700       0.39952700
Ni      -1.52294000       1.54329000      -1.54329000      -0.51068600       0.51820600      -0.51820600
Ti      -2.92350000       3.04601000       0.02208000       1.35221300      -0.29089500       0.29089500
4
Lattice="2.20356691 2.20356691 0.0 -2.1147982 2.1147982 4.086858618 2.1147982 -2.1147982 4.086858618" Properties=species:S:1:pos:R:3:forces:R:3 config_type=Hf3Ni energy=-34.76867784 force="_JSON [[-0.0, 0.0, 0.0], [0.0, -0.0, 0.0], [-0.0, 0.0, -0.0], [0.0, -0.0, -0.0]]" virial="-4.059073371027556 -0.8616824059171151 -0.0 -0.8616824059171151 -4.059073371027556 -0.0 -0.0 -0.0 -5.573535968750276" stress="0.05328219678887478 0.011311037600181166 0.0 0.011311037600181166 0.05328219678887478 0.0 0.0 0.0 0.07316207743779855" free_energy=-34.76867934 pbc="T T T"
Hf       0.00000000       0.00000000       8.17372000      -0.00000000       0.00000000       0.00000000
Hf       2.15918000       0.04438000       6.13029000       0.00000000      -0.00000000       0.00000000
Hf       0.04438000       2.15918000       6.13029000      -0.00000000       0.00000000      -0.00000000
Ni       0.00000000       0.00000000       4.08686000       0.00000000      -0.00000000      -0.00000000
4
Lattice="1.862576468 1.862576468 0.0 -3.692473871 3.692473871 0.0 -0.0 0.0 3.692309379" Properties=species:S:1:pos:R:3:forces:R:3 config_type=HfNi3 energy=-27.1554307 force="_JSON [[-0.0, 0.0, -0.0], [-0.44489, 0.44489, 0.0], [-0.0, 0.0, -0.0], [0.44489, -0.44489, -0.0]]" virial="0.6030975903443498 2.259110136668029 0.0 2.259110136668029 0.6030975903443498 -0.0 0.0 -0.0 -2.0451397617100637" stress="-0.011874845602540453 -0.044481331879886586 -0.0 -0.044481331879886586 -0.011874845602540453 0.0 -0.0 0.0 0.04026830697840626" free_energy=-27.15543098 pbc="T T T"
Hf       0.00000000       0.00000000       0.00000000      -0.00000000       0.00000000      -0.00000000
Ni      -0.03480000       1.89738000       1.84615000      -0.44489000       0.44489000       0.00000000
Ni      -1.84624000       1.84624000       0.00000000      -0.00000000       0.00000000      -0.00000000
Ni      -1.79510000       3.65767000       1.84615000       0.44489000      -0.44489000      -0.00000000
4
Lattice="2.108832975 2.108832975 -0.0 -1.993993586 1.993993586 4.011561545 1.993993586 -1.993993586 4.011561545" Properties=species:S:1:pos:R:3:forces:R:3 config_type=HfNiTi2 energy=-30.57671557 force="_JSON [[-0.0, -0.0, -0.0], [0.0, 0.0, 0.0], [-0.0, 0.0, -0.0], [0.0, -0.0, -0.0]]" virial="-1.0830663131458127 -0.44106120639174584 0.0 -0.44106120639174584 -1.0830663131458127 0.0 0.0 0.0 -1.3793219054608086" stress="0.016051501230344257 0.006536713783010159 -0.0 0.006536713783010159 0.016051501230344257 -0.0 -0.0 -0.0 0.020442134515510715" free_energy=-30.57671436 pbc="T T T"
Hf       0.00000000       0.00000000       0.00000000      -0.00000000      -0.00000000      -0.00000000
Ni       0.00000000       0.00000000       4.01156000       0.00000000       0.00000000       0.00000000
Ti       0.05742000       2.05141000       2.00578000      -0.00000000       0.00000000      -0.00000000
Ti       2.05141000       0.05742000       2.00578000       0.00000000      -0.00000000      -0.00000000
3
Lattice="1.968207057 1.968207057 -0.0 -3.827045468 3.827045468 3.827045468 0.0 -1.968207057 1.968207057" Properties=species:S:1:pos:R:3:forces:R:3 config_type=NiTi2 energy=-21.28061904 force="_JSON [[-0.0, -0.0, 0.0], [0.136267, -0.136267, -0.136267], [-0.136267, 0.136267, 0.136267]]" virial="-1.0464757809444902 1.1137022009168462 1.1137022009168462 1.1137022009168462 -1.0464757809444902 -1.1137022009168462 1.1137022009168462 -1.1137022009168462 -1.0464757809444902" stress="0.02352896023484404 -0.02504047898287744 -0.02504047898287744 -0.02504047898287744 0.02352896023484404 0.02504047898287744 -0.02504047898287744 0.02504047898287744 0.02352896023484404" free_energy=-21.28061579 pbc="T T T"
Ni       1.96821000       0.00000000       1.96821000      -0.00000000      -0.00000000       0.00000000
Ti       0.07499000       1.89322000       1.89322000       0.13626700      -0.13626700      -0.13626700
Ti      -1.93383000       1.93383000       3.90203000      -0.13626700       0.13626700       0.13626700
4
Lattice="0.0 2.892285718 0.0 -5.620259794 0.0 -0.0 0.0 0.0 2.892285718" Properties=species:S:1:pos:R:3:forces:R:3 config_type=Ni3Ti energy=-25.10330949 force="_JSON [[-0.0414, 0.0, -0.0], [-0.0, -0.0, -0.0], [0.0414, -0.0, 0.0], [-0.0, -0.0, -0.0]]" virial="-3.9980747047775558 0.0 0.0 0.0 0.5832975458381071 0.0 0.0 0.0 0.5832975458381071" stress="0.08503782181765313 -0.0 -0.0 -0.0 -0.012406559764974446 -0.0 -0.0 -0.0 -0.012406559764974446" free_energy=-25.10330684 pbc="T T T"
Ni      -0.00127000       0.00000000       0.00000000      -0.04140000       0.00000000      -0.00000000
Ni      -1.40506000       1.44614000       1.44614000      -0.00000000      -0.00000000      -0.00000000
Ni      -2.80886000       0.00000000       0.00000000       0.04140000      -0.00000000       0.00000000
Ti      -4.21519000       1.44614000       1.44614000      -0.00000000      -0.00000000      -0.00000000
4
Lattice="1.448827829 1.416894907 -1.416894907 -0.0 5.627714647 5.627714647 1.448827829 -1.416894907 1.416894907" Properties=species:S:1:pos:R:3:forces:R:3 config_type=Ni3Ti energy=-24.23785427 force="_JSON [[-0.0, 0.149399, 0.149399], [0.0, 0.0, 0.0], [0.0, -0.149399, -0.149399], [0.0, 0.0, -0.0]]" virial="0.7698188960778023 -0.0 -0.0 -0.0 -1.6380430673217061 -0.43711100656532625 -0.0 -0.43711100656532625 -1.6380430673217061" stress="-0.016658737653201437 0.0 0.0 0.0 0.0354469471484626 0.009459000838766952 0.0 0.009459000838766952 0.0354469471484626" free_energy=-24.23785011 pbc="T T T"
Ni      -0.00000000       0.02240000       0.02240000      -0.00000000       0.14939900       0.14939900
Ni       1.44883000       1.40693000       1.40693000       0.00000000       0.00000000       0.00000000
Ni      -0.00000000       2.79146000       2.79146000       0.00000000      -0.14939900      -0.14939900
Ti       1.44883000       4.22079000       4.22079000       0.00000000       0.00000000      -0.00000000
2
Lattice="1.607911534 1.609418729 -1.609418729 0.0 3.068056084 3.068056084 1.607911534 -1.609418729 1.609418729" Properties=species:S:1:pos:R:3:forces:R:3 config_type=HfNi energy=-15.4663199 force="_JSON [[0.0, 0.0, 0.0], [-0.0, -0.0, -0.0]]" virial="0.9925466270523847 0.0 -0.0 0.0 -0.9877463706152152 -1.9257716228136312 -0.0 -1.9257716228136312 -0.9877463706152152" stress="-0.031253339581872895 -0.0 0.0 -0.0 0.031102188955371382 0.06063875776160621 0.0 0.06063875776160621 0.031102188955371382" free_energy=-15.46632025 pbc="T T T"
Hf       0.00000000       0.00000000       0.00000000       0.00000000       0.00000000       0.00000000
Ni       1.60791000       1.53403000       1.53403000      -0.00000000      -0.00000000      -0.00000000
4
Lattice="1.961885596 1.961885596 0.0 -3.906470563 3.906470563 -0.0 0.0 -0.0 3.754350961" Properties=species:S:1:pos:R:3:forces:R:3 config_type=HfNi2Ti energy=-29.80924523 force="_JSON [[0.0, 0.0, 0.0], [-0.074556, 0.074556, -0.0], [0.074556, -0.074556, 0.0], [-0.0, 0.0, 0.0]]" virial="-0.578488873814899 0.11044009111180911 -0.0 0.11044009111180911 -0.578488873814899 0.0 -0.0 0.0 -3.7635751678181872" stress="0.010052449767965058 -0.0019191267430083325 0.0 -0.0019191267430083325 0.010052449767965058 -0.0 0.0 -0.0 0.06539996192659461" free_energy=-29.80924468 pbc="T T T"
Hf       0.00000000       0.00000000       0.00000000       0.00000000       0.00000000       0.00000000
Ni      -0.04268000       2.00456000       1.87718000      -0.07455600       0.07455600      -0.00000000
Ni      -1.90191000       3.86379000       1.87718000       0.07455600      -0.07455600       0.00000000
Ti      -1.95324000       1.95324000      -0.00000000      -0.00000000       0.00000000       0.00000000
3
Lattice="1.556005532 1.556005532 -1.556005532 -2.966348597 2.966348597 0.0 -0.0 2.966348597 2.966348597" Properties=species:S:1:pos:R:3:forces:R:3 config_type=HfNi2 energy=-21.59374968 force="_JSON [[-0.0, 0.0, 0.0], [-0.112841, -0.112841, 0.112841], [0.112841, 0.112841, -0.112841]]" virial="-0.007279099521903933 0.6189303495570998 -0.6189303495570998 0.6189303495570998 -0.007279099521903933 -0.6189303495570998 -0.6189303495570998 -0.6189303495570998 -0.007279099521903933" stress="0.00017721516861120336 -0.015068326229816872 0.015068326229816872 -0.015068326229816872 0.00017721516861120336 0.015068326229816872 0.015068326229816872 0.015068326229816872 0.00017721516861120336" free_energy=-21.59374939 pbc="T T T"
Hf       1.55601000       1.55601000      -1.55601000      -0.00000000       0.00000000       0.00000000
Ni       0.03373000       3.00007000      -0.03373000      -0.11284100      -0.11284100       0.11284100
Ni      -1.44407000       4.48863000       1.44407000       0.11284100       0.11284100      -0.11284100
4
Lattice="1.572250672 1.572939443 -1.572939443 0.0 6.259198699 6.259198699 1.572250672 -1.572939443 1.572939443" Properties=species:S:1:pos:R:3:forces:R:3 config_type=Hf2Ni2 energy=-29.53958724 force="_JSON [[0.0, -1.547491, -1.547491], [0.0, 1.547491, 1.547491], [-0.0, 0.389908, 0.389908], [-0.0, -0.389908, -0.389908]]" virial="5.270161619334156 0.0 -0.0 0.0 2.7509310179449784 -3.2805676346111006 -0.0 -3.2805676346111006 2.7509310179449784" stress="-0.08511604041001869 -0.0 0.0 -0.0 -0.044429065482466445 0.05298299132439818 0.0 0.05298299132439818 -0.044429065482466445" free_energy=-29.53958912 pbc="T T T"
Hf       0.00000000       6.21527000       6.21527000       0.00000000      -1.54749100      -1.54749100
Hf       1.57225000       1.60873000       1.60873000       0.00000000       1.54749100       1.54749100
Ni       0.00000000       3.13582000       3.13582000      -0.00000000       0.38990800       0.38990800
Ni       1.57225000       4.68818000       4.68818000      -0.00000000      -0.38990800      -0.38990800
4
Lattice="-0.06864743 3.496646524 0.056609282 -3.236886425 -0.007054791 -3.246939535 -4.859768227 1.603529449 1.620683229" Properties=species:S:1:pos:R:3:forces:R:3 config_type=HfTi3 energy=-32.85961207 force="_JSON [[-0.0, 0.0, -0.0], [0.073465, 0.010681, -0.075505], [-0.0, 0.0, -0.0], [-0.073465, -0.010681, 0.075505]]" virial="0.13349705169055898 -0.06880782613095288 -0.0563792576223658 -0.06880782613095288 0.8263697351757874 0.08955000091650758 -0.0563792576223658 0.08955000091650758 0.2016117741034539" stress="-0.0018320951397570162 0.0009443091232005076 0.0007737411618083699 0.0009443091232005076 -0.011340984360967152 -0.0012289718714137913 0.0007737411618083699 -0.0012289718714137913 -0.0027668922030496777" free_energy=-32.85961098 pbc="T T T"
Hf      -0.06865000       3.49665000       0.05661000      -0.00000000       0.00000000      -0.00000000
Ti      -4.94953000       1.66707000      -1.53609000       0.07346500       0.01068100      -0.07550500
Ti      -1.65277000       1.74480000      -1.59517000      -0.00000000       0.00000000      -0.00000000
Ti      -3.21577000       3.42605000      -0.03356000      -0.07346500      -0.01068100       0.07550500
3
Lattice="2.075157639 2.110388287 0.011743549 -2.06341409 4.126828179 2.06341409 0.007062327 -0.014124653 4.091516546" Properties=species:S:1:pos:R:3:forces:R:3 config_type=Hf2Ni energy=-25.25397838 force="_JSON [[0.130628, -0.08151, -0.002726], [-0.130628, 0.08151, 0.002726], [-0.0, 0.0, -0.0]]" virial="0.9456834049339242 -0.1931215580038175 -0.05546415296451084 -0.1931215580038175 0.887923474769058 -0.0110965318603045 -0.05546415296451084 -0.0110965318603045 -3.5223828354825173" stress="-0.017860883518392184 0.003647438069020162 0.0010475374426334907 0.003647438069020162 -0.016769986311861183 0.00020957739342890807 0.0010475374426334907 0.00020957739342890807 0.0665263545955245" free_energy=-25.25397697 pbc="T T T"
Hf      -2.00677000       4.07065000       2.06320000       0.13062800      -0.08151000      -0.00272600
Hf      -0.05038000       2.13054000       2.05577000      -0.13062800       0.08151000       0.00272600
Ni       0.01254000       4.14873000       4.11112000      -0.00000000       0.00000000      -0.00000000
4
Lattice="-0.000472256 0.018301452 3.692153681 -1.826292727 3.646497372 1.826292727 -3.692153681 0.018301452 0.000472256" Properties=species:S:1:pos:R:3:forces:R:3 config_type=HfNi3 energy=-28.05373993 force="_JSON [[-0.0, -0.0, 0.0], [-0.004457, -0.0, -0.004457], [0.0, -0.0, 0.0], [0.004457, 0.0, 0.004457]]" virial="-0.3844770271652095 -0.011555050570154204 0.008743853624154465 -0.011555050570154204 0.35829547880155915 0.011555050570154204 0.008743853624154465 0.011555050570154204 -0.3844770271652095" stress="0.007773138016320255 0.0002336134450726845 -0.00017677826297239152 0.0002336134450726845 -0.007243814351881473 -0.0002336134450726845 -0.00017677826297239152 -0.0002336134450726845 0.007773138016320255" free_energy=-28.05373934 pbc="T T T"
Hf       0.00000000       0.00000000       0.00000000      -0.00000000      -0.00000000       0.00000000
Ni      -3.68180000       1.84155000       1.83712000      -0.00445700      -0.00000000      -0.00445700
Ni      -1.84631000       0.01830000       1.84631000       0.00000000      -0.00000000       0.00000000
Ni      -1.83712000       1.84155000       3.68180000       0.00445700       0.00000000       0.00445700
4
Lattice="0.032285248 -0.070757236 3.938839741 -2.05340724 4.11096961 2.05340724 -3.938839741 -0.070757236 -0.032285248" Properties=species:S:1:pos:R:3:forces:R:3 config_type=HfNiTi2 energy=-31.08664204 force="_JSON [[0.039264, -0.0, 0.039264], [0.003058, -0.0, 0.003058], [-0.046324, 0.0, -0.046324], [0.004002, -0.0, 0.004002]]" virial="-0.5475913821675981 0.0853671372426811 -0.1333238945172463 0.0853671372426811 -0.10063069222539338 -0.0853671372426811 -0.1333238945172463 -0.0853671372426811 -0.5475913821675981" stress="0.00843367692711248 -0.0013147738973673083 0.0020533753627969558 -0.0013147738973673083 0.0015498540970845754 0.0013147738973673083 0.0020533753627969558 0.0013147738973673083 0.00843367692711248" free_energy=-31.08664608 pbc="T T T"
Hf      -2.02356000       4.04021000       5.98981000       0.03926400      -0.00000000       0.03926400
Ni      -3.97589000       1.98473000       1.98407000       0.00305800      -0.00000000       0.00305800
Ti      -1.94881000      -0.07076000       1.95775000      -0.04632400       0.00000000      -0.04632400
Ti      -1.98611000       1.98473000       3.97385000       0.00400200      -0.00000000       0.00400200
4
Lattice="0.0 3.705685549 0.0 -3.398319017 0.0 3.398319017 3.398319017 0.0 3.398319017" Properties=species:S:1:pos:R:3:forces:R:3 config_type=Hf3Ti energy=-36.89846668 force="_JSON [[0.0, 0.0, -0.0], [-0.0, 0.0, 0.0], [-0.0, 0.0, 0.0], [0.0, -0.0, -0.0]]" virial="-1.4967633036628518 -0.0 -0.0 -0.0 -0.13462657238531842 -0.0 -0.0 -0.0 -1.4967633036628518" stress="0.017487441544372335 0.0 0.0 0.0 0.0015729102317955882 0.0 0.0 0.0 0.017487441544372335" free_energy=-36.89846014 pbc="T T T"
Hf       0.00000000       3.70569000       0.00000000       0.00000000       0.00000000      -0.00000000
Hf       1.69916000       1.85284000       5.09748000      -0.00000000       0.00000000       0.00000000
Hf      -1.69916000       1.85284000       5.09748000      -0.00000000       0.00000000       0.00000000
Ti       0.00000000       0.00000000       3.39832000       0.00000000      -0.00000000      -0.00000000
3
Lattice="1.570757193 1.570757193 -1.570757193 -3.026483632 3.026483632 -0.0 0.0 3.026483632 3.026483632" Properties=species:S:1:pos:R:3:forces:R:3 config_type=NiTi2 energy=-21.2414351 force="_JSON [[-0.0, -0.0, -0.0], [0.170163, 0.170163, -0.170163], [-0.170163, -0.170163, 0.170163]]" virial="-0.5981881072808921 0.34639048107095527 -0.34639048107095527 0.34639048107095527 -0.5981881072808921 -0.34639048107095527 -0.34639048107095527 -0.34639048107095527 -0.5981881072808921" stress="0.013858965180076607 -0.008025257535951184 0.008025257535951184 -0.008025257535951184 0.013858965180076607 0.008025257535951184 0.008025257535951184 0.008025257535951184 0.013858965180076607" free_energy=-21.24143524 pbc="T T T"
Ni      -3.02648000       6.05297000       3.02648000      -0.00000000      -0.00000000      -0.00000000
Ti       0.07234000       3.09882000      -0.07234000       0.17016300       0.17016300      -0.17016300
Ti      -1.52806000       4.52490000       1.52806000      -0.17016300      -0.17016300       0.17016300
4
Lattice="-0.0 3.194420881 -0.0 -6.378580471 0.0 -0.0 0.0 -0.0 3.194420881" Properties=species:S:1:pos:R:3:forces:R:3 config_type=Hf2Ni2 energy=-31.32143499 force="_JSON [[3.083336, -0.0, 0.0], [-3.083336, 0.0, -0.0], [-0.158384, 0.0, -0.0], [0.158384, -0.0, 0.0]]" virial="-2.5930079598043996 0.0 -0.0 0.0 -0.5132839675384057 0.0 -0.0 0.0 -0.5132839675384057" stress="0.039837817610975844 -0.0 0.0 -0.0 0.007885865912642833 -0.0 0.0 -0.0 0.007885865912642833" free_energy=-31.32143993 pbc="T T T"
Hf      -6.29901000       0.00000000      -0.00000000       3.08333600      -0.00000000       0.00000000
Hf      -1.67421000       1.59721000       1.59721000      -3.08333600       0.00000000      -0.00000000
Ni      -3.18969000       0.00000000      -0.00000000      -0.15838400       0.00000000      -0.00000000
Ni      -4.78354000       1.59721000       1.59721000       0.15838400      -0.00000000       0.00000000
4
Lattice="1.507003547 1.497646655 -1.497646655 -4.439591387 1.481405491 -1.481405491 0.0 2.983655296 2.983655296" Properties=species:S:1:pos:R:3:forces:R:3 config_type=Ni2Ti2 energy=-27.29310345 force="_JSON [[0.383587, -0.377167, 0.377167], [-0.383587, 0.377167, -0.377167], [0.896179, -0.254046, 0.254046], [-0.896179, 0.254046, -0.254046]]" virial="-1.4494903481539645 0.7909937337227086 -0.7909937337227086 0.7909937337227086 -0.1110901227068992 -0.33234019004149246 -0.7909937337227086 -0.33234019004149246 -0.1110901227068992" stress="0.027349799910399493 -0.014924915074631452 0.014924915074631452 -0.014924915074631452 0.002096110975781878 0.006270781803683651 0.014924915074631452 0.006270781803683651 0.002096110975781878" free_energy=-27.29310526 pbc="T T T"
Ni      -2.90589000       2.96666000      -2.96666000       0.38358700      -0.37716700       0.37716700
Ni      -0.00634000       2.99781000      -0.01415000      -0.38358700       0.37716700      -0.37716700
Ti      -1.39055000       1.47312000      -1.47312000       0.89617900      -0.25404600       0.25404600
Ti      -3.02868000       2.99370000      -0.01004000      -0.89617900       0.25404600      -0.25404600
4
Lattice="0.015206663 -0.039614588 3.68787674 -1.890750249 3.785451914 1.890750249 -3.68787674 -0.039614588 -0.015206663" Properties=species:S:1:pos:R:3:forces:R:3 config_type=Ni2Ti2 energy=-27.70858537 force="_JSON [[0.00413, 0.0, 0.00413], [-0.00413, -0.0, -0.00413], [0.016823, 0.0, 0.016823], [-0.016823, -0.0, -0.016823]]" virial="-0.8244488889752428 0.09048420900882526 -0.21584831209018276 0.09048420900882526 -0.2550145054063686 -0.09048420900882526 -0.21584831209018276 -0.09048420900882526 -0.8244488889752428" stress="0.015843315693450422 -0.0017388220273798168 0.004147925961297363 -0.0017388220273798168 0.004900577063769373 0.0017388220273798168 0.004147925961297363 0.0017388220273798168 0.015843315693450422" free_energy=-27.7085845 pbc="T T T"
Ni       0.01493000      -0.03961000       3.68760000       0.00413000       0.00000000       0.00413000
Ni      -3.70721000       1.85311000       1.85621000      -0.00413000      -0.00000000      -0.00413000
Ti      -1.83639000      -0.03961000       1.83628000       0.01682300       0.00000000       0.01682300
Ti      -1.85588000       1.85311000       3.70754000      -0.01682300      -0.00000000      -0.01682300
4
Lattice="-0.0 4.186710193 -0.0 -3.849790843 0.0 -0.0 0.0 -0.0 4.186710193" Properties=species:S:1:pos:R:3:forces:R:3 config_type=Hf2NiTi energy=-33.11826828 force="_JSON [[-0.0, 0.0, 0.0], [-0.0, 0.0, -0.0], [-0.0, 0.0, 0.0], [0.0, -0.0, -0.0]]" virial="1.058561298143832 -0.0 0.0 -0.0 2.353445939109783 0.0 0.0 0.0 2.353445939109783" stress="-0.015686753678536766 0.0 -0.0 0.0 -0.03487556819553362 -0.0 -0.0 -0.0 -0.03487556819553362" free_energy=-33.11826942 pbc="T T T"
Hf       0.00000000       0.00000000       0.00000000      -0.00000000       0.00000000       0.00000000
Hf      -0.00000000       2.09336000       2.09336000      -0.00000000       0.00000000      -0.00000000
Ni      -1.92490000       0.00000000       2.09336000      -0.00000000       0.00000000       0.00000000
Ti      -1.92490000       2.09336000      -0.00000000       0.00000000      -0.00000000      -0.00000000
4
Lattice="1.501309823 1.497044101 -1.497044101 0.0 5.854605941 5.854605941 1.501309823 -1.497044101 1.497044101" Properties=species:S:1:pos:R:3:forces:R:3 config_type=HfNi3 energy=-25.4473437 force="_JSON [[-0.0, 0.0, -0.0], [0.0, 0.351422, 0.351422], [-0.0, -0.0, 0.0], [-0.0, -0.351422, -0.351422]]" virial="-0.45618984634568 0.0 -0.0 0.0 -3.6193511191293424 -1.8255419026829474 -0.0 -1.8255419026829474 -3.6193511191293424" stress="0.008667284130676038 -0.0 0.0 -0.0 0.06876510902086932 0.034684003797442006 0.0 0.034684003797442006 0.06876510902086932" free_energy=-25.44734552 pbc="T T T"
Hf       0.00000000       0.00000000       0.00000000      -0.00000000       0.00000000      -0.00000000
Ni       1.50131000       1.51596000       1.51596000       0.00000000       0.35142200       0.35142200
Ni       0.00000000       2.92730000       2.92730000      -0.00000000      -0.00000000       0.00000000
Ni       1.50131000       4.33865000       4.33865000      -0.00000000      -0.35142200      -0.35142200
4
Lattice="1.988039688 1.988039688 -0.0 -1.988039688 1.988039688 -0.0 -0.0 0.0 7.872501984" Properties=species:S:1:pos:R:3:forces:R:3 config_type=NiTi3 energy=-29.53623608 force="_JSON [[0.0, -0.0, -0.0], [0.0, -0.0, -0.62561], [0.0, -0.0, -0.0], [-0.0, 0.0, 0.62561]]" virial="-0.8700912846636476 0.0 0.0 0.0 -0.8700912846636476 0.0 0.0 0.0 -3.068738056089764" stress="0.013982085189093779 -0.0 -0.0 -0.0 0.013982085189093779 -0.0 -0.0 -0.0 0.0493136268338188" free_energy=-29.53623922 pbc="T T T"
Ni       0.00000000       0.00000000       0.00000000       0.00000000      -0.00000000      -0.00000000
Ti      -0.00000000       1.98804000       1.84991000       0.00000000      -0.00000000      -0.62561000
Ti      -0.00000000       0.00000000       3.93625000       0.00000000      -0.00000000      -0.00000000
Ti      -0.00000000       1.98804000       6.02259000      -0.00000000       0.00000000       0.62561000
2
Lattice="1.880743897 1.899115966 0.01837207 -1.862371827 1.862371827 3.724743653 -0.01837207 -1.871557862 1.926674071" Properties=species:S:1:pos:R:3:forces:R:3 config_type=NiTi energy=-13.44834667 force="_JSON [[-0.0, -0.0, 0.0], [0.0, 0.0, -0.0]]" virial="0.2105641949803469 0.4767097763182447 0.43384285172575887 0.4767097763182447 0.2412112327331362 -0.5750630916815418 0.43384285172575887 -0.5750630916815418 0.31775110345323165" stress="-0.007913465865997489 -0.01791580255719083 -0.016304769187654347 -0.01791580255719083 -0.00906524899405148 0.02161213660870316 -0.016304769187654347 0.02161213660870316 -0.01194178578791555" free_energy=-13.4483466 pbc="T T T"
Ni       0.00000000       0.00000000       0.00000000      -0.00000000      -0.00000000       0.00000000
Ti       0.00919000       1.88074000       1.87156000       0.00000000       0.00000000      -0.00000000
4
Lattice="1.652033056 1.65130537 -1.65130537 0.0 6.477081043 6.477081043 1.652033056 -1.65130537 1.65130537" Properties=species:S:1:pos:R:3:forces:R:3 config_type=Hf2NiTi energy=-32.89556441 force="_JSON [[-0.0, 0.409412, 0.409412], [0.0, -0.409412, -0.409412], [-0.0, -0.0, -0.0], [-0.0, -0.0, -0.0]]" virial="1.732657424025919 -0.0 -0.0 -0.0 -0.16181846047100093 -2.543406642954527 -0.0 -2.543406642954527 -0.16181846047100093" stress="-0.024514737944676922 0.0 0.0 0.0 0.0022895103775564967 0.035985732940736224 0.0 0.035985732940736224 0.0022895103775564967" free_energy=-32.89556541 pbc="T T T"
Hf       0.00000000       0.09814000       0.09814000      -0.00000000       0.40941200       0.40941200
Hf       0.00000000       3.14040000       3.14040000       0.00000000      -0.40941200      -0.40941200
Ni       1.65203000       1.61927000       1.61927000      -0.00000000      -0.00000000      -0.00000000
Ti       1.65203000       4.85781000       4.85781000      -0.00000000      -0.00000000      -0.00000000
4
Lattice="1.52395601 1.47705526 -1.47705526 -4.37979922 1.459188581 -1.459188581 -0.0 2.920899809 2.920899809" Properties=species:S:1:pos:R:3:forces:R:3 config_type=HfNi3 energy=-26.70417209 force="_JSON [[-0.0, 0.0, 0.0], [-0.403028, -0.086762, 0.086762], [0.0, -0.0, -0.0], [0.403028, 0.086762, -0.086762]]" virial="0.7430686975093825 0.8301703173704148 -0.8301703173704148 0.8301703173704148 -0.6336322399271836 -1.410428551916022 -0.8301703173704148 -1.410428551916022 -0.6336322399271836" stress="-0.014632394266428683 -0.016347585940257908 0.016347585940257908 -0.016347585940257908 0.01247738841053497 0.027773941663048887 0.016347585940257908 0.027773941663048887 0.01247738841053497" free_energy=-26.70417333 pbc="T T T"
Hf      -0.00000000       0.00000000      -0.00000000      -0.00000000       0.00000000       0.00000000
Ni      -0.01309000       2.95409000      -0.03319000      -0.40302800      -0.08676200       0.08676200
Ni      -1.42792000       1.46812000      -1.46812000       0.00000000      -0.00000000      -0.00000000
Ni      -2.84275000       2.90305000       0.01785000       0.40302800       0.08676200      -0.08676200
4
Lattice="1.750242004 1.678591997 -1.678591997 -4.979869039 1.657979397 -1.657979397 -0.0 3.316805576 3.316805576" Properties=species:S:1:pos:R:3:forces:R:3 config_type=Hf3Ni energy=-34.92008057 force="_JSON [[0.461867, 0.311962, -0.311962], [0.0, 0.0, -0.0], [-0.461867, -0.311962, 0.311962], [0.0, -0.0, -0.0]]" virial="-0.0806079166980082 1.3879084394483223 -1.3879084394483223 1.3879084394483223 -1.0763706794714683 -1.3366308457129694 -1.3879084394483223 -1.3366308457129694 -1.0763706794714683" stress="0.001079069546737453 -0.01857943725650949 0.01857943725650949 -0.01857943725650949 0.014408991930285943 0.01789300232435398 0.01857943725650949 0.01789300232435398 0.014408991930285943" free_energy=-34.92007814 pbc="T T T"
Hf      -4.86903000       1.69357000      -1.69357000       0.46186700       0.31196200      -0.31196200
Hf       0.06771000       3.33184000      -0.01504000       0.00000000       0.00000000      -0.00000000
Hf      -1.72565000       1.63269000      -1.63269000      -0.46186700      -0.31196200       0.31196200
Ni      -3.29734000       3.32154000      -0.00473000       0.00000000      -0.00000000      -0.00000000
3
Lattice="1.694934883 1.694934883 -1.694934883 -3.349894916 3.349894916 -0.0 0.0 3.349894916 3.349894916" Properties=species:S:1:pos:R:3:forces:R:3 config_type=HfTi2 energy=-25.28995926 force="_JSON [[0.0, -0.0, -0.0], [-0.466038, -0.466038, 0.466038], [0.466038, 0.466038, -0.466038]]" virial="-0.24124837117140138 0.47931031744238295 -0.47931031744238295 0.47931031744238295 -0.24124837117140138 -0.47931031744238295 -0.47931031744238295 -0.47931031744238295 -0.24124837117140138" stress="0.004227929625272934 -0.008400016468396592 0.008400016468396592 -0.008400016468396592 0.004227929625272934 0.008400016468396592 0.008400016468396592 0.008400016468396592 0.004227929625272934" free_energy=-25.28995852 pbc="T T T"
Hf       0.00000000       0.00000000       0.00000000       0.00000000      -0.00000000      -0.00000000
Ti      -0.10078000       3.24912000       0.10078000      -0.46603800      -0.46603800       0.46603800
Ti      -1.55418000       5.14561000       1.55418000       0.46603800       0.46603800      -0.46603800
4
Lattice="-0.0 3.088232063 -0.0 -6.118743722 -0.0 -0.0 0.0 0.0 3.088232063" Properties=species:S:1:pos:R:3:forces:R:3 config_type=HfNi2Ti energy=-30.21509627 force="_JSON [[-0.0, 0.0, 0.0], [-0.280726, -0.0, -0.0], [0.280726, 0.0, 0.0], [0.0, 0.0, 0.0]]" virial="-1.0871022063013398 0.0 0.0 0.0 -1.2534408786426712 0.0 0.0 0.0 -1.2534408786426712" stress="0.018628944906895997 -0.0 -0.0 -0.0 0.021479379709595625 -0.0 -0.0 -0.0 0.021479379709595625" free_energy=-30.21510087 pbc="T T T"
Hf       0.00000000       0.00000000       0.00000000      -0.00000000       0.00000000       0.00000000
Ni      -1.62683000       1.54412000       1.54412000      -0.28072600      -0.00000000      -0.00000000
Ni      -4.49192000       1.54412000       1.54412000       0.28072600       0.00000000       0.00000000
Ti      -3.05937000      -0.00000000      -0.00000000       0.00000000       0.00000000       0.00000000
4