6
Lattice="0.0 -2.9681 2.9681 -4.45215 -1.48405 1.48405 0.0 -2.9681 -2.9681" Properties=species:S:1:pos:R:3:forces:R:3 config_type=Hf2Ni4 energy=-41.93685809 force="_JSON [[-1.770706, 0.0, -0.0], [1.770706, -0.0, -0.0], [0.0, -0.0, 0.0], [-0.886884, 0.0, 0.0], [0.0, -0.0, 0.0], [0.886884, -0.0, 0.0]]" virial="7.3491766744886995 -0.0 0.0 -0.0 0.832505921410457 -2.7898926531096992 0.0 -2.7898926531096992 0.832505921410457" stress="-0.09368754234164894 0.0 -0.0 0.0 -0.010612812457286855 0.035565641927509516 -0.0 0.035565641927509516 -0.010612812457286855" free_energy=-41.9368615 pbc="T T T"
Hf       0.00000000       0.00000000       0.00000000      -1.77070600       0.00000000      -0.00000000
Hf      -2.96810000      -2.96810000       2.96810000       1.77070600      -0.00000000      -0.00000000
Ni      -1.48405000      -4.45215000       1.48405000       0.00000000      -0.00000000       0.00000000
Ni       0.00000000      -2.96810000       0.00000000      -0.88688400       0.00000000       0.00000000
Ni      -1.48405000      -1.48405000       1.48405000       0.00000000      -0.00000000       0.00000000
Ni      -2.96810000      -2.96810000      -0.00000000       0.88688400      -0.00000000       0.00000000
6
Lattice="1.290408046 1.557508142 -1.557508142 -5.715211916 2.86616607 -2.86616607 0.0 2.933506041 2.933506041" Properties=species:S:1:pos:R:3:forces:R:3 config_type=Ni4Ti2 energy=-38.02620352 force="_JSON [[-0.142931, -0.178438, 0.178438], [-0.356161, 0.254316, -0.254316], [0.356161, -0.254316, 0.254316], [0.142931, 0.178438, -0.178438], [0.299359, -0.137661, 0.137661], [-0.299359, 0.137661, -0.137661]]" virial="-2.126797875314009 1.0549823097457178 -1.0549823097457178 1.0549823097457178 -1.4700725052387746 1.5594535270347183 -1.0549823097457178 1.5594535270347183 -1.4700725052387746" stress="0.028769893032756955 -0.014271092027658677 0.014271092027658677 -0.014271092027658677 0.019886153365595287 -0.021095239788934014 0.014271092027658677 -0.021095239788934014 0.019886153365595287" free_energy=-38.02620446 pbc="T T T"
Ni       1.27845000       1.56069000      -1.56069000      -0.14293100      -0.17843800       0.17843800
Ni      -0.16244000       2.91393000       0.01958000      -0.35616100       0.25431600      -0.25431600
Ni      -1.40476000       1.54342000      -1.54342000       0.35616100      -0.25431600       0.25431600
Ni      -2.84565000       2.89665000       0.03685000       0.14293100       0.17843800      -0.17843800
Ti      -2.81611000       2.91844000      -2.91844000       0.29935900      -0.13766100       0.13766100
Ti      -4.46629000       4.40507000      -1.47156000      -0.29935900       0.13766100      -0.13766100
6
Lattice="2.136890173 2.136890173 0.0 -7.146931043 7.146931043 7.146931043 -0.0 -2.136890173 2.136890173" Properties=species:S:1:pos:R:3:forces:R:3 config_type=Hf2Ni2Ti2 energy=-45.82609045 force="_JSON [[0.259759, -0.259759, -0.259759], [-0.259759, 0.259759, 0.259759], [0.03007, -0.03007, -0.03007], [-0.03007, 0.03007, 0.03007], [-0.17419, 0.17419, 0.17419], [0.17419, -0.17419, -0.17419]]" virial="2.003756230582424 -0.6138131017516986 -0.6138131017516986 -0.6138131017516986 2.003756230582424 0.6138131017516986 -0.6138131017516986 0.6138131017516986 2.003756230582424" stress="-0.020466314121864386 0.006269471086767215 0.006269471086767215 0.006269471086767215 -0.020466314121864386 -0.006269471086767215 0.006269471086767215 -0.006269471086767215 -0.020466314121864386" free_energy=-45.82608551 pbc="T T T"
Hf       1.88026000       0.25663000       2.39352000       0.25975900      -0.25975900      -0.25975900
Hf      -3.31684000       3.31684000       3.31684000      -0.25975900       0.25975900       0.25975900
Ni       0.10999000       2.02690000       2.02690000       0.03007000      -0.03007000      -0.03007000
Ni      -1.54657000       1.54657000       3.68346000      -0.03007000       0.03007000       0.03007000
Ti      -3.25102000       5.38791000       5.38791000      -0.17419000       0.17419000       0.17419000
Ti      -5.33249000       5.33249000       7.46938000       0.17419000      -0.17419000      -0.17419000
6
Lattice="-2.990800515 2.990800515 0.0 -0.0 -2.990800515 -2.990800515 -3.037461349 -3.037461349 3.037461349" Properties=species:S:1:pos:R:3:forces:R:3 config_type=Hf2Ni4 energy=-43.83022967 force="_JSON [[-0.420132, -0.420132, 0.420132], [0.420132, 0.420132, -0.420132], [0.0, -0.0, -0.0], [0.709907, 0.709907, -0.709907], [-0.0, -0.0, 0.0], [-0.709907, -0.709907, 0.709907]]" virial="0.015190489792758301 -0.5816285359809965 0.5816285359809965 -0.5816285359809965 0.015190489792758301 0.5816285359809965 0.5816285359809965 0.5816285359809965 0.015190489792758301" stress="-0.00018636522098974822 0.007135736379857679 -0.007135736379857679 0.007135736379857679 -0.00018636522098974822 -0.007135736379857679 -0.007135736379857679 -0.007135736379857679 -0.00018636522098974822" free_energy=-43.83022786 pbc="T T T"
Hf      -2.91031000      -2.91031000       2.91031000      -0.42013200      -0.42013200       0.42013200
Hf      -3.13351000      -0.14271000       0.14271000       0.42013200       0.42013200      -0.42013200
Ni      -1.50318000      -1.50318000      -1.48762000       0.00000000      -0.00000000      -0.00000000
Ni      -1.50929000      -1.50929000       1.50929000       0.70990700       0.70990700      -0.70990700
Ni      -3.02191000      -3.02191000       0.03111000      -0.00000000      -0.00000000       0.00000000
Ni      -4.53453000      -1.54373000       1.54373000      -0.70990700      -0.70990700       0.70990700
6
Lattice="1.7885 1.7885 0.0 -7.154 7.154 7.154 0.0 -1.7885 1.7885" Properties=species:S:1:pos:R:3:forces:R:3 config_type=HfNi5 energy=-34.94634187 force="_JSON [[-0.0, 0.0, 0.0], [-1.335504, 1.335504, 1.335504], [-0.150027, 0.150027, 0.150027], [-0.0, 0.0, 0.0], [0.150027, -0.150027, -0.150027], [1.335504, -1.335504, -1.335504]]" virial="6.4080365162604584 1.0089939941189923 1.0089939941189923 1.0089939941189923 6.4080365162604584 -1.0089939941189923 1.0089939941189923 -1.0089939941189923 6.4080365162604584" stress="-0.0933419562228579 -0.014697399583974757 -0.014697399583974757 -0.014697399583974757 -0.0933419562228579 0.014697399583974757 -0.014697399583974757 0.014697399583974757 -0.0933419562228579" free_energy=-34.94634435 pbc="T T T"
Hf       0.00000000       0.00000000       0.00000000      -0.00000000       0.00000000       0.00000000
Ni       0.00000000       1.78850000       1.78850000      -1.33550400       1.33550400       1.33550400
Ni      -1.78850000       1.78850000       3.57700000      -0.15002700       0.15002700       0.15002700
Ni      -3.57700000       3.57700000       3.57700000      -0.00000000       0.00000000       0.00000000
Ni      -3.57700000       5.36550000       5.36550000       0.15002700      -0.15002700      -0.15002700
Ni      -5.36550000       5.36550000       7.15400000       1.33550400      -1.33550400      -1.33550400
6
Lattice="0.0 0.0 3.8553 1.92765 3.8553 -1.92765 -3.8553 3.8553 0.0" Properties=species:S:1:pos:R:3:forces:R:3 config_type=Hf2Ni4 energy=-42.42144968 force="_JSON [[1.574404, -1.691862, -0.0], [-1.574404, 1.691862, 0.0], [-0.464216, 0.089951, -0.0], [-0.189381, -0.402261, 0.0], [0.189381, 0.402261, -0.0], [0.464216, -0.089951, 0.0]]" virial="-9.448785515437413 3.1706973457114818 0.0 3.1706973457114818 -3.8898164706866396 0.0 0.0 0.0 -6.090454555745822" stress="0.10992847337396375 -0.036888330058448444 -0.0 -0.036888330058448444 0.04525466110209265 -0.0 -0.0 -0.0 0.07085718798175587" free_energy=-42.42145074 pbc="T T T"
Hf       0.00000000       0.00000000       0.00000000       1.57440400      -1.69186200      -0.00000000
Hf       0.00000000       1.92765000       1.92765000      -1.57440400       1.69186200       0.00000000
Ni      -0.00000000       3.85530000       0.00000000      -0.46421600       0.08995100      -0.00000000
Ni      -1.92765000       1.92765000       0.00000000      -0.18938100      -0.40226100       0.00000000
Ni      -1.92765000       3.85530000       1.92765000       0.18938100       0.40226100      -0.00000000
Ni      -1.92765000       5.78295000       0.00000000       0.46421600      -0.08995100       0.00000000
6
Lattice="2.09525 4.1905 2.09525 -4.1905 2.09525 2.09525 -2.09525 -2.09525 4.1905" Properties=species:S:1:pos:R:3:forces:R:3 config_type=Hf4Ni2 energy=-50.19423561 force="_JSON [[0.958578, -0.0, -0.958578], [-0.0, 0.0, -0.0], [-0.958578, 0.0, 0.958578], [-0.0, 0.0, -0.0], [-0.031272, -0.0, 0.031272], [0.031272, 0.0, -0.031272]]" virial="-0.14854132839047426 -0.0610947776154504 0.07873909820080562 -0.0610947776154504 -0.05388575920128629 -0.0610947776154504 0.07873909820080562 -0.0610947776154504 -0.14854132839047426" stress="0.0013457317826316892 0.0005534970292833274 -0.0007133483195063236 0.0005534970292833274 0.00048818587779008495 0.0005534970292833274 -0.0007133483195063236 0.0005534970292833274 0.0013457317826316892" free_energy=-50.1942356 pbc="T T T"
Hf       0.00000000       0.00000000       0.00000000       0.95857800      -0.00000000      -0.95857800
Hf       0.00000000       2.09525000       2.09525000      -0.00000000       0.00000000      -0.00000000
Hf      -2.09525000       0.00000000       2.09525000      -0.95857800       0.00000000       0.95857800
Hf      -4.19050000       0.00000000       4.19050000      -0.00000000       0.00000000      -0.00000000
Ni      -2.09525000       2.09525000       4.19050000      -0.03127200      -0.00000000       0.03127200
Ni      -4.19050000       2.09525000       6.28575000       0.03127200       0.00000000      -0.03127200
6
Lattice="0.0 0.0 3.6824 1.8412 3.6824 -1.8412 -3.6824 3.6824 0.0" Properties=species:S:1:pos:R:3:forces:R:3 config_type=HfNi4Ti energy=-41.44109887 force="_JSON [[-0.0, 0.0, -0.0], [-0.106595, 0.541887, 0.0], [-0.882253, -0.244193, -0.0], [0.882253, 0.244193, 0.0], [0.106595, -0.541887, -0.0], [-0.0, 0.0, -0.0]]" virial="2.2527122284447567 -2.198457030462971 0.0 -2.198457030462971 2.264784729932673 0.0 0.0 0.0 -1.8651911950692521" stress="-0.030076103579603553 0.02935173899649005 -0.0 0.02935173899649005 -0.030237284311270363 -0.0 -0.0 -0.0 0.024902285729321263" free_energy=-41.441099 pbc="T T T"
Hf       0.00000000       0.00000000       0.00000000      -0.00000000       0.00000000      -0.00000000
Ni       0.00000000       1.84120000       1.84120000      -0.10659500       0.54188700       0.00000000
Ni      -0.00000000       3.68240000       0.00000000      -0.88225300      -0.24419300      -0.00000000
Ni      -1.84120000       3.68240000       1.84120000       0.88225300       0.24419300       0.00000000
Ni      -1.84120000       5.52360000       0.00000000       0.10659500      -0.54188700      -0.00000000
Ti      -1.84120000       1.84120000       0.00000000      -0.00000000       0.00000000      -0.00000000
6
Lattice="2.017047788 1.580127487 -1.580127487 -0.0 6.415095708 6.415095708 2.017047788 -1.580127487 1.580127487" Properties=species:S:1:pos:R:3:forces:R:3 config_type=Hf2Ni4 energy=-42.77309909 force="_JSON [[-0.0, 1.322859, 1.322859], [0.0, -1.322859, -1.322859], [-0.0, -0.0, 0.0], [0.0, -0.189773, -0.189773], [-0.0, -0.0, 0.0], [-0.0, 0.189773, 0.189773]]" virial="9.072049288178146 -0.0 -0.0 -0.0 -0.6137322726732451 0.10947257493901881 -0.0 0.10947257493901881 -0.6137322726732451" stress="-0.11092615364169967 0.0 0.0 0.0 0.007504253803177204 -0.0013385478056277976 0.0 -0.0013385478056277976 0.007504253803177204" free_energy=-42.77310685 pbc="T T T"
Hf       4.03410000       6.14123000       6.14123000      -0.00000000       1.32285900       1.32285900
Hf       0.00000000       2.41223000       2.41223000       0.00000000      -1.32285900      -1.32285900
Ni       2.01705000       1.06918000       1.06918000      -0.00000000      -0.00000000       0.00000000
Ni       2.01705000       3.42991000       3.42991000       0.00000000      -0.18977300      -0.18977300
Ni       0.00000000       4.27673000       4.27673000      -0.00000000      -0.00000000       0.00000000
Ni       2.01705000       5.12355000       5.12355000      -0.00000000       0.18977300       0.18977300
6
Lattice="-0.0 3.028069169 0.0 -8.941153836 0.0 -0.0 0.0 0.0 3.028069169" Properties=species:S:1:pos:R:3:forces:R:3 config_type=Hf2Ni4 energy=-43.22384832 force="_JSON [[-0.295788, 0.0, -0.0], [0.295788, -0.0, 0.0], [-0.0, 0.0, 0.0], [-1.200319, 0.0, -0.0], [-0.0, 0.0, -0.0], [1.200319, -0.0, 0.0]]" virial="-6.8694648807693355 0.0 -0.0 0.0 -0.7894285855807881 0.0 -0.0 0.0 -0.7894285855807881" stress="0.08379107412824882 -0.0 0.0 -0.0 0.009629144377538531 -0.0 0.0 -0.0 0.009629144377538531" free_energy=-43.2238471 pbc="T T T"
Hf      -8.76526000       0.00000000      -0.00000000      -0.29578800       0.00000000      -0.00000000
Hf      -3.15627000       0.00000000      -0.00000000       0.29578800      -0.00000000       0.00000000
Ni      -1.49019000       1.51403000       1.51403000      -0.00000000       0.00000000       0.00000000
Ni      -4.52203000       1.51403000       1.51403000      -1.20031900       0.00000000      -0.00000000
Ni      -5.96077000       0.00000000      -0.00000000      -0.00000000       0.00000000      -0.00000000
Ni      -7.39951000       1.51403000       1.51403000       1.20031900      -0.00000000       0.00000000
6
Lattice="2.213544037 2.213544037 -0.0 -7.790671891 7.790671891 7.790671891 -0.0 -2.213544037 2.213544037" Properties=species:S:1:pos:R:3:forces:R:3 config_type=Hf4Ni2 energy=-50.2959315 force="_JSON [[-0.327242, 0.327242, 0.327242], [0.020822, -0.020822, -0.020822], [-0.020822, 0.020822, 0.020822], [0.327242, -0.327242, -0.327242], [-0.283508, 0.283508, 0.283508], [0.283508, -0.283508, -0.283508]]" virial="-1.2609206968526647 1.076138001152033 1.076138001152033 1.076138001152033 -1.2609206968526647 -1.076138001152033 1.076138001152033 -1.076138001152033 -1.2609206968526647" stress="0.011010708664061916 -0.009397135000311198 -0.009397135000311198 -0.009397135000311198 0.011010708664061916 0.009397135000311198 -0.009397135000311198 0.009397135000311198 0.011010708664061916" free_energy=-50.29592741 pbc="T T T"
Hf      -7.40495000       7.40495000       7.40495000      -0.32724200       0.32724200       0.32724200
Hf       0.32860000       1.88494000       1.88494000       0.02082200      -0.02082200      -0.02082200
Hf      -2.01039000       2.01039000       4.22394000      -0.02082200       0.02082200       0.02082200
Hf      -4.28106000       4.28106000       4.28106000       0.32724200      -0.32724200      -0.32724200
Ni      -3.83987000       6.05341000       6.05341000      -0.28350800       0.28350800       0.28350800
Ni      -5.63259000       5.63259000       7.84614000       0.28350800      -0.28350800      -0.28350800
4
Lattice="2.047606377 1.712547765 -1.712547765 -4.482115831 1.505854279 -1.505854279 0.0 2.956088604 2.956088604" Properties=species:S:1:pos:R:3:forces:R:3 config_type=Hf2Ni2 energy=-32.59831337 force="_JSON [[1.079642, -0.720527, 0.720527], [-1.079642, 0.720527, -0.720527], [-0.721082, 0.298587, -0.298587], [0.721082, -0.298587, 0.298587]]" virial="0.3651662016710954 -0.306501711715704 0.306501711715704 -0.306501711715704 -0.6316390070096847 -0.4897007976362936 0.306501711715704 -0.4897007976362936 -0.6316390070096847" stress="-0.005740659226076756 0.004818413837636246 -0.004818413837636246 0.004818413837636246 0.0099297916306232 0.007698427152083432 -0.004818413837636246 0.007698427152083432 0.0099297916306232" free_energy=-32.59831556 pbc="T T T"
Hf      -4.13217000       1.43306000      -1.43306000       1.07964200      -0.72052700       0.72052700
Hf       0.06523000       3.21172000      -0.25563000      -1.07964200       0.72052700      -0.72052700
Ni      -1.37501000       1.19663000      -1.19663000      -0.72108200       0.29858700      -0.29858700
Ni      -2.69193000       3.44815000      -0.49206000       0.72108200      -0.29858700       0.29858700
5
Lattice="0.0 -3.0197 3.0197 -4.52955 1.50985 1.50985 -3.0197 0.0 -3.0197" Properties=species:S:1:pos:R:3:forces:R:3 config_type=Hf2Ni3 energy=-37.34725951 force="_JSON [[0.304216, -0.304216, -0.304216], [-0.304216, 0.304216, 0.304216], [-0.230662, 0.230662, 0.230662], [0.0, -0.0, -0.0], [0.230662, -0.230662, -0.230662]]" virial="3.300053416410714 -1.123085900035929 -1.123085900035929 -1.123085900035929 3.300053416410714 1.123085900035929 -1.123085900035929 1.123085900035929 3.300053416410714" stress="-0.04793906552053465 0.016314793051310512 0.016314793051310512 0.016314793051310512 -0.04793906552053465 -0.016314793051310512 0.016314793051310512 -0.016314793051310512 -0.04793906552053465" free_energy=-37.3472563 pbc="T T T"
Hf       0.00000000       0.00000000       0.00000000       0.30421600      -0.30421600      -0.30421600
Hf      -4.52955000      -1.50985000       1.50985000      -0.30421600       0.30421600       0.30421600
Ni      -1.50985000      -1.50985000       1.50985000      -0.23066200       0.23066200       0.23066200
Ni      -6.03940000      -0.00000000      -0.00000000       0.00000000      -0.00000000      -0.00000000
Ni      -3.01970000      -0.00000000       0.00000000       0.23066200      -0.23066200      -0.23066200
6
Lattice="2.157100069 2.157100069 0.0 -2.157100069 2.157100069 0.0 -0.0 0.0 9.288983856" Properties=species:S:1:pos:R:3:forces:R:3 config_type=HfNi3Ti2 energy=-43.02729496 force="_JSON [[-0.0, 0.0, -0.0], [-0.0, 0.0, 0.190933], [-0.0, 0.0, 0.0], [0.0, -0.0, -0.190933], [0.0, -0.0, -0.575524], [-0.0, 0.0, 0.575524]]" virial="-1.6096316085097389 -0.0 0.0 -0.0 -1.6096316085097389 -0.0 0.0 -0.0 -4.497664898005082" stress="0.01862034410732053 0.0 -0.0 0.0 0.01862034410732053 0.0 -0.0 0.0 0.05202933866203623" free_energy=-43.02730453 pbc="T T T"
Hf       0.00000000       0.00000000       0.00000000      -0.00000000       0.00000000      -0.00000000
Ni      -0.00000000       0.00000000       3.34331000      -0.00000000       0.00000000       0.19093300
Ni      -0.00000000       2.15710000       4.64449000      -0.00000000       0.00000000       0.00000000
Ni      -0.00000000       0.00000000       5.94567000       0.00000000      -0.00000000      -0.19093300
Ti      -0.00000000       2.15710000       2.14420000       0.00000000      -0.00000000      -0.57552400
Ti      -0.00000000       2.15710000       7.14479000      -0.00000000       0.00000000       0.57552400
6
Lattice="0.0 0.0 4.0727 -2.03635 6.10905 0.0 -4.0727 0.0 0.0" Properties=species:S:1:pos:R:3:forces:R:3 config_type=Hf2Ni2Ti2 energy=-46.34907129 force="_JSON [[-0.0, -0.116112, -0.0], [-0.0, 0.116112, 0.0], [0.0, 0.838006, -0.0], [-0.0, -0.838006, 0.0], [-0.0, 2.26972, -0.0], [0.0, -2.26972, 0.0]]" virial="-5.453751312980134 -0.0 0.0 -0.0 -1.7649753223564795 0.0 0.0 0.0 -3.729484448588531" stress="0.05382162545658837 0.0 -0.0 0.0 0.017418073411947267 -0.0 -0.0 -0.0 0.0368052930210377" free_energy=-46.34907206 pbc="T T T"
Hf       0.00000000       0.00000000       0.00000000      -0.00000000      -0.11611200      -0.00000000
Hf      -2.03635000       0.00000000       2.03635000      -0.00000000       0.11611200       0.00000000
Ni      -4.07270000       2.03635000       2.03635000       0.00000000       0.83800600      -0.00000000
Ni      -4.07270000       4.07270000       0.00000000      -0.00000000      -0.83800600       0.00000000
Ti      -2.03635000       2.03635000       0.00000000      -0.00000000       2.26972000      -0.00000000
Ti      -2.03635000       4.07270000       2.03635000       0.00000000      -2.26972000       0.00000000
5
Lattice="1.9023 1.9023 0.0 -3.8046 1.9023 -1.9023 0.0 1.9023 5.7069" Properties=species:S:1:pos:R:3:forces:R:3 config_type=Hf2Ni3 energy=-36.28832492 force="_JSON [[1.592529, -1.592529, -3.350367], [-1.592529, 1.592529, 3.350367], [-0.330592, 0.330592, 0.074837], [0.0, 0.0, -0.0], [0.330592, -0.330592, -0.074837]]" virial="5.257031526940357 4.066432105998889 -2.0013568534267607 4.066432105998889 5.257031526940357 2.0013572830884514 -2.0013568534267607 2.0013572830884514 3.10053543768183" stress="-0.07636661801924603 -0.059071296367277516 0.02907284340270908 -0.059071296367277516 -0.07636661801924603 -0.0290728496442182 0.02907284340270908 -0.0290728496442182 -0.045040134191926914" free_energy=-36.28832444 pbc="T T T"
Hf       0.00000000       0.00000000       0.00000000       1.59252900      -1.59252900      -3.35036700
Hf      -0.00000000       1.90230000       1.90230000      -1.59252900       1.59252900       3.35036700
Ni      -0.00000000       3.80460000       3.80460000      -0.33059200       0.33059200       0.07483700
Ni      -1.90230000       1.90230000       0.00000000       0.00000000       0.00000000      -0.00000000
Ni      -1.90230000       3.80460000       1.90230000       0.33059200      -0.33059200      -0.07483700
3
Lattice="2.314147317 2.314147317 0.0 -3.747860269 3.747860269 3.747860269 -0.0 -2.314147317 2.314147317" Properties=species:S:1:pos:R:3:forces:R:3 config_type=Hf2Ni energy=-25.42092688 force="_JSON [[0.358797, -0.358797, -0.358797], [-0.358797, 0.358797, 0.358797], [0.0, -0.0, -0.0]]" virial="-2.4008898524775875 -0.2633950047730527 -0.2633950047730527 -0.2633950047730527 -2.4008898524775875 0.2633950047730527 -0.2633950047730527 0.2633950047730527 -2.4008898524775875" stress="0.03987361266581278 0.00437442408596654 0.00437442408596654 0.00437442408596654 0.03987361266581278 -0.00437442408596654 0.00437442408596654 -0.00437442408596654 0.03987361266581278" free_energy=-25.42092925 pbc="T T T"
Hf      -3.66647000       3.66647000       3.66647000       0.35879700      -0.35879700      -0.35879700
Hf       0.21208000       2.10206000       2.10206000      -0.35879700       0.35879700       0.35879700
Ni      -1.72719000       1.72719000       4.04134000       0.00000000      -0.00000000      -0.00000000
6
Lattice="-3.087321669 3.087321669 0.0 -0.0 -3.087321669 -3.087321669 -3.068794322 -3.068794322 3.068794322" Properties=species:S:1:pos:R:3:forces:R:3 config_type=HfNi3Ti2 energy=-42.44705673 force="_JSON [[-0.0, -0.0, -0.0], [0.174269, 0.174269, -0.174269], [-0.0, -0.0, -0.0], [-0.174269, -0.174269, 0.174269], [-0.894023, -0.894023, 0.894023], [0.894023, 0.894023, -0.894023]]" virial="-2.024128960147377 -0.8557104898685761 0.8557104898685761 -0.8557104898685761 -2.024128960147377 0.8557104898685761 0.8557104898685761 0.8557104898685761 -2.024128960147377" stress="0.02306669534445375 0.009751559096024478 -0.009751559096024478 0.009751559096024478 0.02306669534445375 -0.009751559096024478 -0.009751559096024478 -0.009751559096024478 0.02306669534445375" free_energy=-42.447053 pbc="T T T"
Hf       0.00000000       0.00000000       0.00000000      -0.00000000      -0.00000000      -0.00000000
Ni      -3.03899000       0.04833000      -0.04833000       0.17426900       0.17426900      -0.17426900
Ni      -1.53440000      -1.53440000       1.53440000      -0.00000000      -0.00000000      -0.00000000
Ni      -3.11713000      -3.11713000       0.02981000      -0.17426900      -0.17426900       0.17426900
Ti      -1.58687000      -1.58687000      -1.50045000      -0.89402300      -0.89402300       0.89402300
Ti      -4.56925000      -1.48193000       1.48193000       0.89402300       0.89402300      -0.89402300
6
Lattice="-3.287976972 3.287976972 -0.0 -0.0 -3.287976972 -3.287976972 -3.227527728 -3.227527728 3.227527728" Properties=species:S:1:pos:R:3:forces:R:3 config_type=Hf4Ni2 energy=-50.02364364 force="_JSON [[-0.414212, -0.414212, 0.414212], [-0.056507, -0.056507, 0.056507], [0.056507, 0.056507, -0.056507], [0.414212, 0.414212, -0.414212], [-0.568482, -0.568482, 0.568482], [0.568482, 0.568482, -0.568482]]" virial="2.718556031805466 -0.1006252658543618 0.1006252658543618 -0.1006252658543618 2.718556031805466 0.1006252658543618 0.1006252658543618 0.1006252658543618 2.718556031805466" stress="-0.025971050544491885 0.0009612985110411618 -0.0009612985110411618 0.0009612985110411618 -0.025971050544491885 -0.0009612985110411618 -0.0009612985110411618 -0.0009612985110411618 -0.025971050544491885" free_energy=-50.0236393 pbc="T T T"
Hf      -3.17875000      -3.17875000       3.17875000      -0.41421200      -0.41421200       0.41421200
Hf      -1.58229000      -1.58229000      -1.70568000      -0.05650700      -0.05650700       0.05650700
Hf      -3.31945000      -0.03147000       0.03147000       0.05650700       0.05650700      -0.05650700
Hf      -1.66255000      -1.66255000       1.66255000       0.41421200       0.41421200      -0.41421200
Ni      -3.09456000      -3.09456000      -0.19342000      -0.56848200      -0.56848200       0.56848200
Ni      -5.03471000      -1.74673000       1.74673000       0.56848200       0.56848200      -0.56848200
6
Lattice="0.0 0.0 3.7396 -1.8698 5.6094 0.0 -3.7396 0.0 0.0" Properties=species:S:1:pos:R:3:forces:R:3 config_type=Hf2Ni4 energy=-43.08073625 force="_JSON [[0.0, 3.883553, -0.0], [0.0, -3.883553, 0.0], [-0.0, -0.0, 0.0], [-0.0, 0.804326, 0.0], [-0.0, -0.0, -0.0], [-0.0, -0.804326, -0.0]]" virial="6.6564091121972515 0.0 0.0 0.0 5.188025769157112 0.0 0.0 0.0 0.40737930381630977" stress="-0.08485419037766052 -0.0 -0.0 -0.0 -0.06613561739971684 -0.0 -0.0 -0.0 -0.005193166528572529" free_energy=-43.08073877 pbc="T T T"
Hf       0.00000000       0.00000000       0.00000000       0.00000000       3.88355300      -0.00000000
Hf      -3.73960000       3.73960000       0.00000000       0.00000000      -3.88355300       0.00000000
Ni      -3.73960000       1.86980000       1.86980000      -0.00000000      -0.00000000       0.00000000
Ni      -1.86980000       0.00000000       1.86980000      -0.00000000       0.80432600       0.00000000
Ni      -1.86980000       1.86980000       0.00000000      -0.00000000      -0.00000000      -0.00000000
Ni      -1.86980000       3.73960000       1.86980000      -0.00000000      -0.80432600      -0.00000000
5
Lattice="0.0 -3.1131 3.1131 -4.66965 1.55655 1.55655 -3.1131 0.0 -3.1131" Properties=species:S:1:pos:R:3:forces:R:3 config_type=Hf2Ni3 energy=-37.59091466 force="_JSON [[0.451885, -0.451885, -0.451885], [-0.451885, 0.451885, 0.451885], [-0.106881, 0.106881, 0.106881], [0.0, -0.0, 0.0], [0.106881, -0.106881, -0.106881]]" virial="0.6776075905274747 -1.4044977445653768 -1.4044977445653768 -1.4044977445653768 0.6776075905274747 1.4044977445653768 -1.4044977445653768 1.4044977445653768 0.6776075905274747" stress="-0.008983778575431325 0.018620949533705744 0.018620949533705744 0.018620949533705744 -0.008983778575431325 -0.018620949533705744 0.018620949533705744 -0.018620949533705744 -0.008983778575431325" free_energy=-37.59091347 pbc="T T T"
Hf       0.00000000       0.00000000       0.00000000       0.45188500      -0.45188500      -0.45188500
Hf      -4.66965000      -1.55655000       1.55655000      -0.45188500       0.45188500       0.45188500
Ni      -1.55655000      -1.55655000       1.55655000      -0.10688100       0.10688100       0.10688100
Ni      -6.22620000       0.00000000       0.00000000       0.00000000      -0.00000000       0.00000000
Ni      -3.11310000      -0.00000000       0.00000000       0.10688100      -0.10688100      -0.10688100
6
Lattice="0.0 -2.9228 2.9228 -1.4614 4.3842 1.4614 -4.3842 -1.4614 1.4614" Properties=species:S:1:pos:R:3:forces:R:3 config_type=HfNi4Ti energy=-41.00609971 force="_JSON [[0.0, -0.0, -0.0], [-0.403045, 0.103732, 0.103732], [-0.43436, 0.067827, 0.067827], [0.43436, -0.067827, -0.067827], [0.403045, -0.103732, -0.103732], [0.0, -0.0, 0.0]]" virial="0.7596441702978497 1.558704739769922 1.558704739769922 1.558704739769922 0.7375543801452698 1.5604719977867008 1.558704739769922 1.5604719977867008 0.7375543801452698" stress="-0.010141253959808126 -0.020808717071001213 -0.020808717071001213 -0.020808717071001213 -0.009846355136628392 -0.020832309975497055 -0.020808717071001213 -0.020832309975497055 -0.009846355136628392" free_energy=-41.00610346 pbc="T T T"
Hf       0.00000000       0.00000000       0.00000000       0.00000000      -0.00000000      -0.00000000
Ni      -1.46140000       1.46140000       1.46140000      -0.40304500       0.10373200       0.10373200
Ni      -1.46140000      -1.46140000       1.46140000      -0.43436000       0.06782700       0.06782700
Ni      -2.92280000      -2.92280000       2.92280000       0.43436000      -0.06782700      -0.06782700
Ni      -4.38420000      -1.46140000       4.38420000       0.40304500      -0.10373200      -0.10373200
Ti      -2.92280000      -0.00000000       2.92280000       0.00000000      -0.00000000       0.00000000
6
Lattice="1.8698 1.8698 0.0 -7.4792 7.4792 7.4792 0.0 -1.8698 1.8698" Properties=species:S:1:pos:R:3:forces:R:3 config_type=Hf2Ni4 energy=-37.41807785 force="_JSON [[2.901199, -2.901199, -2.901199], [-2.901199, 2.901199, 2.901199], [-0.684198, 0.684198, 0.684198], [-0.119347, 0.119347, 0.119347], [0.119347, -0.119347, -0.119347], [0.684198, -0.684198, -0.684198]]" virial="10.644312100262376 2.0434896990785805 2.0434896990785805 2.0434896990785805 10.644312100262376 -2.0434896990785805 2.0434896990785805 -2.0434896990785805 10.644312100262376" stress="-0.135690951407996 -0.026049880804751787 -0.026049880804751787 -0.026049880804751787 -0.135690951407996 0.026049880804751787 -0.026049880804751787 0.026049880804751787 -0.135690951407996" free_energy=-37.4180748 pbc="T T T"
Hf       0.00000000       0.00000000       0.00000000       2.90119900      -2.90119900      -2.90119900
Hf       0.00000000       1.86980000       1.86980000      -2.90119900       2.90119900       2.90119900
Ni      -1.86980000       1.86980000       3.73960000      -0.68419800       0.68419800       0.68419800
Ni      -3.73960000       3.73960000       3.73960000      -0.11934700       0.11934700       0.11934700
Ni      -3.73960000       5.60940000       5.60940000       0.11934700      -0.11934700      -0.11934700
Ni      -5.60940000       5.60940000       7.47920000       0.68419800      -0.68419800      -0.68419800
6