5
Lattice="-0.033258572 3.139068413 0.004326111 -7.694125805 1.537013063 1.537013063 -0.033258572 0.004326111 3.139068413" Properties=species:S:1:pos:R:3:forces:R:3 config_type=HfNi2Ti2 energy=-37.65642366 force="_JSON [[0.0, 0.0, 0.0], [-0.448788, 0.016486, 0.016486], [0.448788, -0.016486, -0.016486], [-0.126575, -0.01592, -0.01592], [0.126575, 0.01592, 0.01592]]" virial="-0.09011418619034468 0.19250279136852827 0.19250279136852827 0.19250279136852827 -1.1665739931923484 -0.09152968600375282 0.19250279136852827 -0.09152968600375282 -1.1665739931923484" stress="0.001193638688252166 -0.002549862447724465 -0.002549862447724465 -0.002549862447724465 0.01545226018067733 0.0012123881816663196 -0.002549862447724465 0.0012123881816663196 0.01545226018067733" free_energy=-37.65642291 pbc="T T T"
Hf       0.00000000       0.00000000       0.00000000       0.00000000       0.00000000       0.00000000
Ni      -3.13274000       3.12291000       3.12291000      -0.44878800       0.01648600       0.01648600
Ni      -4.62790000       1.55749000       1.55749000       0.44878800      -0.01648600      -0.01648600
Ti      -1.98071000       1.56141000       1.56141000      -0.12657500      -0.01592000      -0.01592000
Ti      -5.77993000       3.11900000       3.11900000       0.12657500       0.01592000       0.01592000
5
Lattice="1.47675 1.47675 -1.47675 -4.43025 4.43025 -1.47675 0.0 2.9535 2.9535" Properties=species:S:1:pos:R:3:forces:R:3 config_type=HfNi4 energy=-31.84762639 force="_JSON [[-0.0, -0.0, 0.0], [-0.813679, 0.173381, -0.173381], [-0.633946, 0.291857, -0.291857], [0.633946, -0.291857, 0.291857], [0.813679, -0.173381, 0.173381]]" virial="-3.4127103612844514 1.6790950530744946 -1.6790942490476672 1.6790950530744946 -3.611569914478368 -1.5311054732198923 -1.6790942490476672 -1.5311054732198923 -3.611569914478368" stress="0.05298445807904277 -0.026068998547204365 0.026068986064186114 -0.026068998547204365 0.056071876741743056 0.023771367966275096 0.026068986064186114 0.023771367966275096 0.056071876741743056" free_energy=-31.84762753 pbc="T T T"
Hf       0.00000000       0.00000000       0.00000000      -0.00000000      -0.00000000       0.00000000
Ni      -0.00000000       2.95350000      -0.00000000      -0.81367900       0.17338100      -0.17338100
Ni      -1.47675000       4.43025000       1.47675000      -0.63394600       0.29185700      -0.29185700
Ni      -1.47675000       4.43025000      -1.47675000       0.63394600      -0.29185700       0.29185700
Ni      -2.95350000       5.90700000       0.00000000       0.81367900      -0.17338100       0.17338100
4
Lattice="1.554587388 1.538243212 -1.538243212 0.0 5.467161916 5.467161916 1.554587388 -1.538243212 1.538243212" Properties=species:S:1:pos:R:3:forces:R:3 config_type=HfNi3 energy=-25.66449218 force="_JSON [[-0.0, -0.0, -0.0], [-0.0, -0.10878, -0.10878], [-0.0, 0.0, 0.0], [0.0, 0.10878, 0.10878]]" virial="1.6354006652771662 0.0 0.0 0.0 -3.010397511187355 0.647197998948891 0.0 0.647197998948891 -3.010397511187355" stress="-0.03127246356583461 -0.0 -0.0 -0.0 0.05756543242651216 -0.0123758515400751 -0.0 -0.0123758515400751 0.05756543242651216" free_energy=-25.66449455 pbc="T T T"
Hf       0.00000000       0.00000000       0.00000000      -0.00000000      -0.00000000      -0.00000000
Ni       1.55459000       1.46888000       1.46888000      -0.00000000      -0.10878000      -0.10878000
Ni       0.00000000       2.73358000       2.73358000      -0.00000000       0.00000000       0.00000000
Ni       1.55459000       3.99828000       3.99828000       0.00000000       0.10878000       0.10878000
5
Lattice="1.80475 1.80475 0.0 -3.6095 1.80475 -1.80475 0.0 1.80475 5.41425" Properties=species:S:1:pos:R:3:forces:R:3 config_type=HfNi4 energy=-31.86977741 force="_JSON [[-0.0, -0.0, -0.0], [-0.505264, 0.505264, 1.091961], [-0.10311, 0.10311, -1.058402], [0.10311, -0.10311, 1.058402], [0.505264, -0.505264, -1.091961]]" virial="4.7087375856755544 2.189927945273133 -0.003663437869804966 2.189927945273133 4.7087375856755544 0.003663437869804966 -0.003663437869804966 0.003663437869804966 1.4306930128799438" stress="-0.08010384019704202 -0.037254494432827516 6.232146862194434e-05 -0.037254494432827516 -0.08010384019704202 -6.232146862194434e-05 6.232146862194434e-05 -6.232146862194434e-05 -0.024338583832617115" free_energy=-31.86977234 pbc="T T T"
Hf       0.00000000       0.00000000       0.00000000      -0.00000000      -0.00000000      -0.00000000
Ni      -0.00000000       1.80475000       1.80475000      -0.50526400       0.50526400       1.09196100
Ni       0.00000000       3.60950000       3.60950000      -0.10311000       0.10311000      -1.05840200
Ni      -1.80475000       1.80475000       0.00000000       0.10311000      -0.10311000       1.05840200
Ni      -1.80475000       3.60950000       1.80475000       0.50526400      -0.50526400      -1.09196100
4
Lattice="1.63527398 1.640483721 -1.640483721 -0.0 6.055222046 6.055222046 1.63527398 -1.640483721 1.640483721" Properties=species:S:1:pos:R:3:forces:R:3 config_type=HfNiTi2 energy=-30.93288455 force="_JSON [[-0.0, 0.0, -0.0], [-0.0, -0.0, -0.0], [0.0, -0.23797, -0.23797], [-0.0, 0.23797, 0.23797]]" virial="2.1405039697938895 0.0 0.0 0.0 -0.10881214379755964 0.18615336723525647 0.0 0.18615336723525647 -0.10881214379755964" stress="-0.03294302844941376 -0.0 -0.0 -0.0 0.0016746530720566112 -0.0028649587944355554 -0.0 -0.0028649587944355554 0.0016746530720566112" free_energy=-30.9328882 pbc="T T T"
Hf       0.00000000       0.00000000       0.00000000      -0.00000000       0.00000000      -0.00000000
Ni      -0.00000000       3.02761000       3.02761000      -0.00000000      -0.00000000      -0.00000000
Ti       1.63527000       1.75271000       1.75271000       0.00000000      -0.23797000      -0.23797000
Ti       1.63527000       4.30251000       4.30251000      -0.00000000       0.23797000       0.23797000
5
Lattice="1.825805108 1.670070517 -1.614303882 1.682976486 8.439593058 8.439593058 1.825805108 -1.614303882 1.670070517" Properties=species:S:1:pos:R:3:forces:R:3 config_type=Hf3Ti2 energy=-44.52340981 force="_JSON [[-0.022756, 0.209498, 0.209498], [0.022756, -0.209498, -0.209498], [0.0, -0.0, -0.0], [0.003663, -0.175202, -0.175202], [-0.003663, 0.175202, 0.175202]]" virial="2.7698413206492156 -0.1586725222419779 -0.1586725222419779 -0.1586725222419779 -0.5306994349548732 -0.7017235595677073 -0.1586725222419779 -0.7017235595677073 -0.5306994349548732" stress="-0.02744864669042611 0.0015724171525746435 0.0015724171525746435 0.0015724171525746435 0.005259139280033114 0.006953958668075454 0.0015724171525746435 0.006953958668075454 0.005259139280033114" free_energy=-44.52340859 pbc="T T T"
Hf       1.68360000       8.24314000       8.24314000      -0.02275600       0.20949800       0.20949800
Hf       1.79662000       1.90668000       1.90668000       0.02275600      -0.20949800      -0.20949800
Hf       1.74011000       5.07491000       5.07491000       0.00000000      -0.00000000      -0.00000000
Ti       3.59026000       3.50146000       3.50146000       0.00366300      -0.17520200      -0.17520200
Ti       3.54156000       6.70412000       6.70412000      -0.00366300       0.17520200       0.17520200
5
Lattice="1.4487 1.4487 -1.4487 -4.3461 4.3461 -1.4487 0.0 2.8974 2.8974" Properties=species:S:1:pos:R:3:forces:R:3 config_type=Ni4Ti energy=-30.31667668 force="_JSON [[-0.285944, 0.123762, -0.123762], [-0.368206, 0.062364, -0.062364], [0.368206, -0.062364, 0.062364], [0.285944, -0.123762, 0.123762], [-0.0, 0.0, 0.0]]" virial="-5.446883733381498 0.5516763465996614 -0.5516763465996614 0.5516763465996614 -5.646390791284563 -0.5537486227490793 -0.5516763465996614 -0.5537486227490793 -5.646390791284563" stress="0.08957415689185422 -0.009072333106909358 0.009072333106909358 -0.009072333106909358 0.09285505609594774 0.009106411746736681 0.009072333106909358 0.009106411746736681 0.09285505609594774" free_energy=-30.31668067 pbc="T T T"
Ni       0.00000000       0.00000000       0.00000000      -0.28594400       0.12376200      -0.12376200
Ni      -0.00000000       2.89740000      -0.00000000      -0.36820600       0.06236400      -0.06236400
Ni      -1.44870000       4.34610000       1.44870000       0.36820600      -0.06236400       0.06236400
Ni      -1.44870000       4.34610000      -1.44870000       0.28594400      -0.12376200       0.12376200
Ti      -2.89740000       5.79480000       0.00000000      -0.00000000       0.00000000       0.00000000
5
Lattice="-0.056207832 2.824016701 0.010700957 -6.877530689 1.374308623 1.374308623 -0.056207832 0.010700957 2.824016701" Properties=species:S:1:pos:R:3:forces:R:3 config_type=Ni4Ti energy=-30.06393209 force="_JSON [[0.155924, 0.058857, 0.058857], [-0.956251, -0.051917, -0.051917], [0.956251, 0.051917, 0.051917], [-0.155924, -0.058857, -0.058857], [0.0, 0.0, -0.0]]" virial="1.148684494945881 0.5117043250482178 0.5117043250482178 0.5117043250482178 5.125994994105366 -0.3743888978540568 0.5117043250482178 -0.3743888978540568 5.125994994105366" stress="-0.021110337999509524 -0.009404019384877046 -0.009404019384877046 -0.009404019384877046 -0.0942047075463105 0.006880458656609053 -0.009404019384877046 0.006880458656609053 -0.0942047075463105" free_energy=-30.06393219 pbc="T T T"
Ni      -0.16962000       2.83356000       2.83356000       0.15592400       0.05885700       0.05885700
Ni      -1.39449000       1.40999000       1.40999000      -0.95625100      -0.05191700      -0.05191700
Ni      -2.86692000       2.81626000       2.81626000       0.95625100       0.05191700       0.05191700
Ni      -4.09180000       1.39269000       1.39269000      -0.15592400      -0.05885700      -0.05885700
Ti      -5.56947000       2.80028000       2.80028000       0.00000000       0.00000000      -0.00000000
5
Lattice="1.9999 1.9999 0.0 -3.9998 1.9999 -1.9999 0.0 1.9999 5.9997" Properties=species:S:1:pos:R:3:forces:R:3 config_type=Hf3Ni2 energy=-39.96150915 force="_JSON [[1.118664, -1.118664, -0.390841], [0.0, -0.0, 0.0], [-1.118664, 1.118664, 0.390841], [-0.066723, 0.066723, 0.262258], [0.066723, -0.066723, -0.262258]]" virial="4.245746844757028 2.301505329754544 -1.1683880247777503 2.301505329754544 4.245746844757028 1.1683875255319145 -1.1683880247777503 1.1683875255319145 -0.7633633579070419" stress="-0.05307979713094064 -0.028773132375993292 0.014607041256359345 -0.028773132375993292 -0.05307979713094064 -0.014607035014850219 0.014607041256359345 -0.014607035014850219 0.009543473423276655" free_energy=-39.96150727 pbc="T T T"
Hf       0.00000000       0.00000000       0.00000000       1.11866400      -1.11866400      -0.39084100
Hf      -0.00000000       1.99990000       1.99990000       0.00000000      -0.00000000       0.00000000
Hf       0.00000000       3.99980000       3.99980000      -1.11866400       1.11866400       0.39084100
Ni      -1.99990000       1.99990000       0.00000000      -0.06672300       0.06672300       0.26225800
Ni      -1.99990000       3.99980000       1.99990000       0.06672300      -0.06672300      -0.26225800
4
Lattice="2.252496727 2.252496727 -0.0 -1.85024453 1.85024453 3.055973318 1.85024453 -1.85024453 3.055973318" Properties=species:S:1:pos:R:3:forces:R:3 config_type=HfNi3 energy=-27.74716152 force="_JSON [[0.0, -0.0, 0.0], [-0.0, 0.0, -0.0], [0.0, -0.0, 0.0], [0.0, -0.0, 0.0]]" virial="0.4346442774840855 1.492777323228379 -0.0 1.492777323228379 0.4346442774840855 -0.0 -0.0 -0.0 -3.609183005575077" stress="-0.008531612446806714 -0.029301657127263958 0.0 -0.029301657127263958 -0.008531612446806714 0.0 0.0 0.0 0.0708444865106847" free_energy=-27.7471643 pbc="T T T"
Hf       0.00000000       0.00000000       0.00000000       0.00000000      -0.00000000       0.00000000
Ni       0.20113000       2.05137000       1.52799000      -0.00000000       0.00000000      -0.00000000
Ni       2.05137000       0.20113000       1.52799000       0.00000000      -0.00000000       0.00000000
Ni       0.00000000       0.00000000       3.05597000       0.00000000      -0.00000000       0.00000000
4
Lattice="2.183141376 2.183141376 0.0 -4.046418326 4.046418326 0.0 0.0 -0.0 3.7639778" Properties=species:S:1:pos:R:3:forces:R:3 config_type=Hf2Ni2 energy=-31.69219861 force="_JSON [[-0.402826, 0.402826, 0.0], [0.402826, -0.402826, -0.0], [-0.022905, 0.022905, 0.0], [0.022905, -0.022905, -0.0]]" virial="-1.1070773731369195 0.3311047594816168 0.0 0.3311047594816168 -1.1070773731369195 0.0 0.0 0.0 -4.672851811461908" stress="0.01664747172922922 -0.004978926727826586 -0.0 -0.004978926727826586 0.01664747172922922 -0.0 -0.0 -0.0 0.07026714691654051" free_energy=-31.69220116 pbc="T T T"
Hf      -3.81121000       3.81121000       0.00000000      -0.40282600       0.40282600       0.00000000
Hf      -0.15524000       2.33838000       1.88199000       0.40282600      -0.40282600      -0.00000000
Ni      -1.98380000       1.98380000       0.00000000      -0.02290500       0.02290500       0.00000000
Ni      -1.98266000       4.16580000       1.88199000       0.02290500      -0.02290500      -0.00000000
4
Lattice="0.0 3.170793496 -0.0 -5.277946177 0.0 -0.0 0.0 -0.0 3.170793496" Properties=species:S:1:pos:R:3:forces:R:3 config_type=HfNi3 energy=-27.54338027 force="_JSON [[-0.0, 0.0, -0.0], [-0.316293, 0.0, -0.0], [-0.0, 0.0, -0.0], [0.316293, -0.0, 0.0]]" virial="-2.5810703491226175 -0.0 -0.0 -0.0 -1.9189317589740411 0.0 -0.0 0.0 -1.9189317589740411" stress="0.04864060490477481 0.0 0.0 0.0 0.036162517445217736 -0.0 0.0 -0.0 0.036162517445217736" free_energy=-27.54338395 pbc="T T T"
Hf      -0.00000000       3.17079000       3.17079000      -0.00000000       0.00000000      -0.00000000
Ni      -1.37953000       1.58540000       1.58540000      -0.31629300       0.00000000      -0.00000000
Ni      -2.63897000       0.00000000      -0.00000000      -0.00000000       0.00000000      -0.00000000
Ni      -3.89842000       1.58540000       1.58540000       0.31629300      -0.00000000       0.00000000
4
Lattice="1.669598227 1.552089358 -1.552089358 -0.0 5.580484989 5.580484989 1.669598227 -1.552089358 1.552089358" Properties=species:S:1:pos:R:3:forces:R:3 config_type=NiTi3 energy=-29.11376836 force="_JSON [[-0.0, 0.0, 0.0], [-0.0, 0.326552, 0.326552], [-0.0, 0.0, 0.0], [0.0, -0.326552, -0.326552]]" virial="4.558860862828787 -0.0 -0.0 -0.0 1.6072940955144104 1.2240120152929188 -0.0 1.2240120152929188 1.6072940955144104" stress="-0.07881260927209756 0.0 0.0 0.0 -0.0277865557529923 -0.021160457317790368 0.0 -0.021160457317790368 -0.0277865557529923" free_energy=-29.11376672 pbc="T T T"
Ni      -0.00000000       0.00000000       0.00000000      -0.00000000       0.00000000       0.00000000
Ti       1.66960000       1.23823000       1.23823000      -0.00000000       0.32655200       0.32655200
Ti      -0.00000000       2.79024000       2.79024000      -0.00000000       0.00000000       0.00000000
Ti       1.66960000       4.34226000       4.34226000       0.00000000      -0.32655200      -0.32655200
4
Lattice="2.128012738 2.128012738 -0.0 -4.075932424 4.075932424 0.0 -0.0 0.0 3.537033523" Properties=species:S:1:pos:R:3:forces:R:3 config_type=HfNi2Ti energy=-29.6851759 force="_JSON [[0.486738, -0.486738, -0.0], [0.049537, -0.049537, -0.0], [-0.004566, 0.004566, 0.0], [-0.53171, 0.53171, 0.0]]" virial="-2.201996226914358 0.24071238097031833 0.0 0.24071238097031833 -2.201996226914358 -0.0 0.0 -0.0 -4.6968766472492645" stress="0.03588774748896898 -0.00392308807805567 -0.0 -0.00392308807805567 0.03588774748896898 0.0 -0.0 0.0 0.07654887008572184" free_energy=-29.68517617 pbc="T T T"
Hf      -0.18205000       0.18205000       0.00000000       0.48673800      -0.48673800      -0.00000000
Ni      -0.00580000       2.13381000       1.76852000       0.04953700      -0.04953700      -0.00000000
Ni      -2.06568000       2.06568000       0.00000000      -0.00456600       0.00456600       0.00000000
Ti      -1.73236000       3.86037000       1.76852000      -0.53171000       0.53171000       0.00000000
4
Lattice="2.153507515 1.436132189 -1.436132189 -0.0 4.201555448 4.201555448 2.153507515 -1.436132189 1.436132189" Properties=species:S:1:pos:R:3:forces:R:3 config_type=Ni2Ti2 energy=-27.56648284 force="_JSON [[0.0, -0.256135, -0.256135], [-0.0, 0.256135, 0.256135], [-0.0, 0.335629, 0.335629], [0.0, -0.335629, -0.335629]]" virial="0.025670609830863424 -0.0 -0.0 -0.0 1.6939011217775921 -2.0265111734199825 -0.0 -2.0265111734199825 1.6939011217775921" stress="-0.0004938843756220163 0.0 0.0 0.0 -0.032589459440450726 0.03898864156987205 0.0 0.03898864156987205 -0.032589459440450726" free_energy=-27.56648521 pbc="T T T"
Ni       4.30702000       0.05501000       0.05501000       0.00000000      -0.25613500      -0.25613500
Ni       2.15351000       0.99538000       0.99538000      -0.00000000       0.25613500       0.25613500
Ti       4.30702000       1.94919000       1.94919000      -0.00000000       0.33562900       0.33562900
Ti       2.15351000       3.30275000       3.30275000       0.00000000      -0.33562900      -0.33562900
4
Lattice="0.0 3.07217081 -0.0 -6.02045812 0.0 0.0 -0.0 -0.0 3.07217081" Properties=species:S:1:pos:R:3:forces:R:3 config_type=HfNi2Ti energy=-29.68700959 force="_JSON [[-0.029315, 0.0, 0.0], [-0.706066, 0.0, 0.0], [-0.004769, 0.0, 0.0], [0.74015, -0.0, -0.0]]" virial="-1.1332751583466896 0.0 -0.0 0.0 1.315527565061561 0.0 -0.0 0.0 1.315527565061561" stress="0.019944130743865616 -0.0 0.0 -0.0 -0.023151529936492755 -0.0 0.0 -0.0 -0.023151529936492755" free_energy=-29.68701119 pbc="T T T"
Hf      -0.16904000       0.00000000       0.00000000      -0.02931500       0.00000000       0.00000000
Ni      -1.54347000       1.53609000       1.53609000      -0.70606600       0.00000000       0.00000000
Ni      -3.01754000       0.00000000       0.00000000      -0.00476900       0.00000000       0.00000000
Ti      -4.30064000       1.53609000       1.53609000       0.74015000      -0.00000000      -0.00000000
5
Lattice="-0.154586185 3.244227659 0.021976373 -7.114019308 1.403104453 1.403104453 -0.154586185 0.021976373 3.244227659" Properties=species:S:1:pos:R:3:forces:R:3 config_type=Hf2Ni3 energy=-38.45255842 force="_JSON [[1.45103, 0.109321, 0.109321], [-1.45103, -0.109321, -0.109321], [-0.0, 0.0, -0.0], [0.154046, 0.006314, 0.006314], [-0.154046, -0.006314, -0.006314]]" virial="-1.4010023367508293 0.367976500117644 0.367976500117644 0.367976500117644 -2.110129774368806 -0.5756994297925345 0.367976500117644 -0.5756994297925345 -2.110129774368806" stress="0.01906802883239276 -0.005008261820718237 -0.005008261820718237 -0.005008261820718237 0.028719449156001567 0.00783542827739657 -0.005008261820718237 0.00783542827739657 0.028719449156001567" free_energy=-38.45256077 pbc="T T T"
Hf      -7.03919000       1.39146000       1.39146000       1.45103000       0.10932100       0.10932100
Hf      -3.16777000       3.18585000       3.18585000      -1.45103000      -0.10932100      -0.10932100
Ni      -1.54647000       1.58710000       1.58710000      -0.00000000       0.00000000      -0.00000000
Ni      -4.36354000       1.49533000       1.49533000       0.15404600       0.00631400       0.00631400
Ni      -5.84342000       3.08198000       3.08198000      -0.15404600      -0.00631400      -0.00631400
3
Lattice="2.166329758 2.18569953 0.188211847 -2.166329758 2.18569953 0.188211847 -0.0 1.865253673 5.660624946" Properties=species:S:1:pos:R:3:forces:R:3 config_type=Hf2Ni energy=-26.1802302 force="_JSON [[-0.0, -0.035771, 0.123926], [0.0, 0.035771, -0.123926], [-0.0, -0.0, 0.0]]" virial="2.995500532101961 0.0 -0.0 0.0 2.739855415365639 -0.4418756597908382 -0.0 -0.4418756597908382 1.222187961356929" stress="-0.057512354632905646 -0.0 0.0 -0.0 -0.05260407554687494 0.008483827452938951 0.0 0.008483827452938951 -0.02346549657005206" free_energy=-26.18022926 pbc="T T T"
Hf      -0.00000000       1.89526000       5.49492000      -0.00000000      -0.03577100       0.12392600
Hf      -0.00000000       2.04888000       2.17805000       0.00000000       0.03577100      -0.12392600
Ni      -0.00000000       4.15777000       4.02470000      -0.00000000      -0.00000000       0.00000000
4
Lattice="2.079208907 1.467182178 -1.467182178 0.0 5.178364037 5.178364037 2.079208907 -1.467182178 1.467182178" Properties=species:S:1:pos:R:3:forces:R:3 config_type=Hf2Ni2 energy=-31.08939582 force="_JSON [[-0.0, -0.541012, -0.541012], [0.0, 0.541012, 0.541012], [0.0, 0.471662, 0.471662], [-0.0, -0.471662, -0.471662]]" virial="2.6990397701336386 0.0 0.0 0.0 -0.33129667506325683 -3.0561728421457928 0.0 -3.0561728421457928 -0.33129667506325683" stress="-0.04271442306144029 -0.0 -0.0 -0.0 0.005243029944979209 0.04836633426925612 -0.0 0.04836633426925612 0.005243029944979209" free_energy=-31.08939757 pbc="T T T"
Hf       2.07921000       3.56800000       6.50237000      -0.00000000      -0.54101200      -0.54101200
Hf       2.07921000       1.43777000       1.43777000       0.00000000       0.54101200       0.54101200
Ni       0.00000000       2.61887000       2.61887000       0.00000000       0.47166200       0.47166200
Ni       2.07921000       3.85408000       3.85408000      -0.00000000      -0.47166200      -0.47166200
4
Lattice="2.025838933 2.025838933 -0.0 -2.025838933 2.025838933 -0.0 -0.0 -0.0 7.043467608" Properties=species:S:1:pos:R:3:forces:R:3 config_type=HfNi2Ti energy=-29.13547453 force="_JSON [[0.0, 0.0, -0.375316], [0.0, 0.0, -0.721705], [-0.0, -0.0, 0.782668], [-0.0, -0.0, 0.314353]]" virial="2.9167710492560754 0.0 0.0 0.0 2.9167710492560754 -0.0 0.0 -0.0 -1.7279823318927843" stress="-0.050451722332359734 -0.0 -0.0 -0.0 -0.050451722332359734 0.0 -0.0 0.0 0.02988910796619209" free_energy=-29.13546817 pbc="T T T"
Hf      -0.00000000      -0.00000000       0.26282000       0.00000000       0.00000000      -0.37531600
Ni      -0.00000000       2.02584000       2.05128000       0.00000000       0.00000000      -0.72170500
Ni      -0.00000000      -0.00000000       3.35342000      -0.00000000      -0.00000000       0.78266800
Ti      -0.00000000       2.02584000       4.89768000      -0.00000000      -0.00000000       0.31435300
5
Lattice="1.9023 1.9023 0.0 -3.8046 1.9023 -1.9023 0.0 1.9023 5.7069" Properties=species:S:1:pos:R:3:forces:R:3 config_type=Hf2Ni3 energy=-35.55789841 force="_JSON [[-0.012456, 0.012456, 2.775816], [0.012456, -0.012456, -2.775816], [-0.0, 0.0, 0.0], [-0.056626, 0.056626, 1.051101], [0.056626, -0.056626, -1.051101]]" virial="5.775729432454669 2.383831808726699 1.4561956546888786 2.383831808726699 5.775729432454669 -1.4561956546888786 1.4561956546888786 -1.4561956546888786 1.2304728852095248" stress="-0.08390151763223133 -0.03462889127186046 -0.02115352300115151 -0.03462889127186046 -0.08390151763223133 0.02115352300115151 -0.02115352300115151 0.02115352300115151 -0.01787454618186874" free_energy=-35.55789879 pbc="T T T"
Hf       0.00000000       0.00000000       0.00000000      -0.01245600       0.01245600       2.77581600
Hf      -0.00000000       3.80460000       3.80460000       0.01245600      -0.01245600      -2.77581600
Ni      -0.00000000       1.90230000       1.90230000      -0.00000000       0.00000000       0.00000000
Ni      -1.90230000       1.90230000       0.00000000      -0.05662600       0.05662600       1.05110100
Ni      -1.90230000       3.80460000       1.90230000       0.05662600      -0.05662600      -1.05110100
5
Lattice="1.677251397 1.739078719 -1.58431626 1.495576139 7.504405763 7.504405763 1.677251397 -1.58431626 1.739078719" Properties=species:S:1:pos:R:3:forces:R:3 config_type=Hf3Ni2 energy=-40.90730992 force="_JSON [[-0.403746, 0.139631, 0.139631], [0.403746, -0.139631, -0.139631], [-0.0, -0.0, 0.0], [-0.293521, 0.303543, 0.303543], [0.293521, -0.303543, -0.303543]]" virial="7.477945990618153 -1.6475856521485939 -1.6475856521485939 -1.6475856521485939 3.192399138498072 -0.921382717234983 -1.6475856521485939 -0.921382717234983 3.192399138498072" stress="-0.09021266327543206 0.019876191917030377 0.019876191917030377 0.019876191917030377 -0.038512557978277046 0.011115403738139481 0.019876191917030377 0.011115403738139481 -0.038512557978277046" free_energy=-40.9073111 pbc="T T T"
Hf       1.52971000       7.34097000       7.34097000      -0.40374600       0.13963100       0.13963100
Hf       1.60678000       1.72622000       1.72622000       0.40374600      -0.13963100      -0.13963100
Hf       1.56825000       4.53360000       4.53360000      -0.00000000      -0.00000000       0.00000000
Ni       3.30765000       3.18550000       3.18550000      -0.29352100       0.30354300       0.30354300
Ni       3.18335000       6.03646000       6.03646000       0.29352100      -0.30354300      -0.30354300
5
Lattice="0.0 3.0113 0.0 -4.51695 1.50565 -1.50565 -1.50565 -1.50565 4.51695" Properties=species:S:1:pos:R:3:forces:R:3 config_type=Ni2Ti3 energy=-35.28891412 force="_JSON [[0.374414, -0.0, 0.043863], [-0.374414, 0.0, -0.043863], [1.693557, 0.0, 0.038909], [0.0, -0.0, -0.0], [-1.693557, -0.0, -0.038909]]" virial="0.04046657240905984 0.0 -1.484828018820197 0.0 0.8226848120418315 0.0 -1.484828018820197 0.0 -0.5152860299485947" stress="-0.0005927810877216366 -0.0 0.021750741801861647 -0.0 -0.012051230650437911 -0.0 0.021750741801861647 -0.0 0.0075482502010055545" free_energy=-35.28891346 pbc="T T T"
Ni       0.00000000       0.00000000       0.00000000       0.37441400      -0.00000000       0.04386300
Ni      -1.50565000       1.50565000       1.50565000      -0.37441400       0.00000000      -0.04386300
Ti      -3.01130000       0.00000000       3.01130000       1.69355700       0.00000000       0.03890900
Ti      -3.01130000       3.01130000       0.00000000       0.00000000      -0.00000000      -0.00000000
Ti      -4.51695000       1.50565000       1.50565000      -1.69355700      -0.00000000      -0.03890900
4
Lattice="1.679989252 1.656122146 -1.656122146 -0.0 6.047126684 6.047126684 1.679989252 -1.656122146 1.656122146" Properties=species:S:1:pos:R:3:forces:R:3 config_type=Hf2NiTi energy=-32.95699335 force="_JSON [[0.0, -0.401658, -0.401658], [-0.0, 0.401658, 0.401658], [-0.0, -0.0, 0.0], [-0.0, -0.0, 0.0]]" virial="4.0112410429131895 0.0 0.0 0.0 0.7951256453830001 -0.1272892597434279 0.0 -0.1272892597434279 0.7951256453830001" stress="-0.059603372537240816 -0.0 -0.0 -0.0 -0.011814839733804209 0.0018914019594711592 -0.0 0.0018914019594711592 -0.011814839733804209" free_energy=-32.95699146 pbc="T T T"
Hf      -0.00000000       0.17534000       0.17534000       0.00000000      -0.40165800      -0.40165800
Hf      -0.00000000       2.84823000       2.84823000      -0.00000000       0.40165800       0.40165800
Ni       1.67999000       1.51178000       1.51178000      -0.00000000      -0.00000000       0.00000000
Ti       1.67999000       4.53535000       4.53535000      -0.00000000      -0.00000000       0.00000000
5
Lattice="1.5873 1.5873 -1.5873 -4.7619 4.7619 -1.5873 0.0 3.1746 3.1746" Properties=species:S:1:pos:R:3:forces:R:3 config_type=Hf3Ni2 energy=-39.83858612 force="_JSON [[0.712805, 0.647456, -0.647456], [-0.712805, -0.647456, 0.647456], [0.0, -0.0, -0.0], [0.440204, -0.020551, 0.020551], [-0.440204, 0.020551, -0.020551]]" virial="5.185519397098997 1.36146198967541 -1.36146198967541 1.36146198967541 3.9117757993207203 -3.501983652651433 -1.36146198967541 -3.501983652651433 3.9117757993207203" stress="-0.0648313729282449 -0.017021525371143403 0.017021525371143403 -0.017021525371143403 -0.04890653688410131 0.04378315666906528 0.017021525371143403 0.04378315666906528 -0.04890653688410131" free_energy=-39.83859074 pbc="T T T"
Hf       0.00000000       0.00000000       0.00000000       0.71280500       0.64745600      -0.64745600
Hf      -0.00000000       3.17460000      -0.00000000      -0.71280500      -0.64745600       0.64745600
Hf      -1.58730000       4.76190000      -1.58730000       0.00000000      -0.00000000      -0.00000000
Ni      -1.58730000       4.76190000       1.58730000       0.44020400      -0.02055100       0.02055100
Ni      -3.17460000       6.34920000       0.00000000      -0.44020400       0.02055100      -0.02055100
5
Lattice="0.0 3.1605 0.0 -7.90125 1.58025 1.58025 0.0 0.0 3.1605" Properties=species:S:1:pos:R:3:forces:R:3 config_type=HfNi2Ti2 energy=-37.39741 force="_JSON [[-2.003365, 0.0, -0.0], [-0.695145, 0.0, -0.0], [0.339283, 0.0, 0.0], [-0.332, 0.0, -0.0], [2.691227, -0.0, 0.0]]" virial="-2.831778758239431 -0.0 0.0 -0.0 -3.6183991574522505 0.0 0.0 0.0 -3.6183991574522505" stress="0.03587995808557987 0.0 -0.0 0.0 0.04584680555588345 -0.0 -0.0 -0.0 0.04584680555588345" free_energy=-37.39741483 pbc="T T T"
Hf       0.00000000       0.00000000       0.00000000      -2.00336500       0.00000000      -0.00000000
Ni      -1.58025000       1.58025000       1.58025000      -0.69514500       0.00000000      -0.00000000
Ni      -4.74075000       1.58025000       1.58025000       0.33928300       0.00000000       0.00000000
Ti      -3.16050000       3.16050000       3.16050000      -0.33200000       0.00000000      -0.00000000
Ti      -6.32100000       3.16050000       3.16050000       2.69122700      -0.00000000       0.00000000
5
Lattice="1.60835 1.60835 -1.60835 -4.82505 4.82505 -1.60835 0.0 3.2167 3.2167" Properties=species:S:1:pos:R:3:forces:R:3 config_type=Hf2Ni2Ti energy=-37.97090364 force="_JSON [[1.301265, 0.293669, -0.293669], [-1.301265, -0.293669, 0.293669], [0.265997, -0.049244, 0.049244], [-0.265997, 0.049244, -0.049244], [0.0, -0.0, 0.0]]" virial="-3.0755957969853664 1.6003252087159041 -1.6003252087159041 1.6003252087159041 -3.559859284814843 -1.8886659826024519 -1.6003252087159041 -1.8886659826024519 -3.559859284814843" stress="0.0369621795944259 -0.019232536288423665 0.019232536288423665 -0.019232536288423665 0.042782006122255356 0.022697784706059293 0.019232536288423665 0.022697784706059293 0.042782006122255356" free_energy=-37.97090616 pbc="T T T"
Hf       0.00000000       0.00000000       0.00000000       1.30126500       0.29366900      -0.29366900