3
Lattice="2.095255847 2.095255847 0.0 -2.095255847 4.190511693 2.095255847 0.0 0.0 4.190511693" Properties=species:S:1:pos:R:3:forces:R:3 config_type=Hf2Ni energy=-25.08724937 force="_JSON [[0.868481, -0.868481, -0.0], [-0.868481, 0.868481, 0.0], [-0.0, 0.0, -0.0]]" virial="-1.8617476910059658 0.9930078853813188 0.0 0.9930078853813188 -1.8617476910059658 -0.0 0.0 -0.0 -5.5447915569475175" stress="0.03373326591984184 -0.017992448289256675 -0.0 -0.017992448289256675 0.03373326591984184 0.0 -0.0 0.0 0.10046685110136393" free_energy=-25.08725047 pbc="T T T"
Hf       0.00000000       0.00000000       0.00000000       0.86848100      -0.86848100      -0.00000000
Hf      -0.00000000       2.09526000       2.09526000      -0.86848100       0.86848100       0.00000000
Ni       0.00000000       4.19051000       4.19051000      -0.00000000       0.00000000      -0.00000000
4
Lattice="1.848008105 1.848008105 0.0 -3.696016211 5.544024316 5.544024316 0.0 -1.848008105 1.848008105" Properties=species:S:1:pos:R:3:forces:R:3 config_type=HfNi3 energy=-25.01047526 force="_JSON [[-0.0, -0.0, 0.0], [-0.876942, 0.876942, 0.876942], [0.0, -0.0, 0.0], [0.876942, -0.876942, -0.876942]]" virial="1.6848324615165626 1.308455048452337 1.308455048452337 1.308455048452337 1.6848324615165626 -1.308455048452337 1.308455048452337 -1.308455048452337 1.6848324615165626" stress="-0.03336991646607855 -0.025915357558561627 -0.025915357558561627 -0.025915357558561627 -0.03336991646607855 0.025915357558561627 -0.025915357558561627 0.025915357558561627 -0.03336991646607855" free_energy=-25.01047455 pbc="T T T"
Hf       0.00000000       0.00000000       0.00000000      -0.00000000      -0.00000000       0.00000000
Ni       0.00000000       1.84801000       1.84801000      -0.87694200       0.87694200       0.87694200
Ni      -1.84801000       1.84801000       3.69602000       0.00000000      -0.00000000       0.00000000
Ni      -1.84801000       3.69602000       5.54402000       0.87694200      -0.87694200      -0.87694200
4
Lattice="2.05110628 2.05110628 0.0 -4.10221256 4.10221256 0.0 0.0 0.0 4.10221256" Properties=species:S:1:pos:R:3:forces:R:3 config_type=Hf2NiTi energy=-32.65434029 force="_JSON [[0.654187, -0.654187, 0.0], [-1.249856, 1.249856, 0.0], [-0.132774, 0.132774, -0.0], [0.728444, -0.728444, -0.0]]" virial="2.9975489264813944 2.2516507549950457 0.0 2.2516507549950457 2.9975489264813944 0.0 0.0 0.0 1.0862898052983905" stress="-0.0434221977132972 -0.03261719046549703 -0.0 -0.03261719046549703 -0.0434221977132972 -0.0 -0.0 -0.0 -0.015735886838375717" free_energy=-32.65433797 pbc="T T T"
Hf       0.00000000       0.00000000       0.00000000       0.65418700      -0.65418700       0.00000000
Hf      -0.00000000       2.05111000       2.05111000      -1.24985600       1.24985600       0.00000000
Ni      -2.05111000       2.05111000       0.00000000      -0.13277400       0.13277400      -0.00000000
Ti      -2.05111000       4.10221000       2.05111000       0.72844400      -0.72844400      -0.00000000
4
Lattice="0.0 3.381627349 0.0 -3.381627349 0.0 -3.381627349 -5.072441023 1.690813674 1.690813674" Properties=species:S:1:pos:R:3:forces:R:3 config_type=HfTi3 energy=-32.76153166 force="_JSON [[-0.0, 0.0, 0.0], [-0.340541, -0.0, 0.340541], [-0.0, 0.0, 0.0], [0.340541, 0.0, -0.340541]]" virial="-2.4688556566252995 0.0 -0.0635749342369449 0.0 -2.3251933260179167 0.0 -0.0635749342369449 0.0 -2.4688556566252995" stress="0.031921880107364506 -0.0 0.000822012993387951 -0.0 0.030064350817919513 -0.0 0.000822012993387951 -0.0 0.031921880107364506" free_energy=-32.76153432 pbc="T T T"
Hf       0.00000000       0.00000000       0.00000000      -0.00000000       0.00000000       0.00000000
Ti      -5.07244000       1.69081000      -1.69081000      -0.34054100      -0.00000000       0.34054100
Ti      -1.69081000       1.69081000      -1.69081000      -0.00000000       0.00000000       0.00000000
Ti      -3.38163000       3.38163000       0.00000000       0.34054100       0.00000000      -0.34054100
1
Lattice="1.760129993 -1.760129993 1.760129993 1.760129993 1.760129993 1.760129993 -1.760129993 1.760129993 1.760129993" Properties=species:S:1:pos:R:3:forces:R:3 config_type=Hf energy=-9.73973081 force="_JSON [[-0.0, 0.0, 0.0]]" virial="0.21677762522664526 -0.0 -0.0 -0.0 0.21677762522664526 0.0 -0.0 0.0 0.21677762522664526" stress="-0.009938486052835555 0.0 0.0 0.0 -0.009938486052835555 -0.0 0.0 -0.0 -0.009938486052835555" free_energy=-9.73973479 pbc="T T T"
Hf       0.00000000       0.00000000       0.00000000      -0.00000000       0.00000000       0.00000000
3
Lattice="1.977397412 1.977397412 0.0 -1.977397412 3.954794824 1.977397412 0.0 0.0 3.954794824" Properties=species:S:1:pos:R:3:forces:R:3 config_type=NiTi2 energy=-21.23609085 force="_JSON [[0.0, -0.0, -0.0], [0.597262, -0.597262, 0.0], [-0.597262, 0.597262, -0.0]]" virial="-2.137132061696269 0.2754301502707769 -0.0 0.2754301502707769 -2.137132061696269 0.0 -0.0 0.0 -4.585722911740043" stress="0.046067879809122234 -0.005937154416377813 0.0 -0.005937154416377813 0.046067879809122234 -0.0 0.0 -0.0 0.09884954501515593" free_energy=-21.23608956 pbc="T T T"
Ni       0.00000000       0.00000000       0.00000000       0.00000000      -0.00000000      -0.00000000
Ti       0.00000000       1.97740000       1.97740000       0.59726200      -0.59726200       0.00000000
Ti       0.00000000       3.95479000       3.95479000      -0.59726200       0.59726200      -0.00000000
4
Lattice="0.0 2.923239744 0.0 -2.923239744 0.0 -2.923239744 -4.384859616 1.461619872 1.461619872" Properties=species:S:1:pos:R:3:forces:R:3 config_type=Ni3Ti energy=-25.27055569 force="_JSON [[0.086184, -0.0, -0.086184], [-0.0, 0.0, 0.0], [-0.086184, 0.0, 0.086184], [-0.0, 0.0, 0.0]]" virial="-6.3154388932908985 0.0 -0.0031425866663690495 0.0 -2.817902083360836 -0.0 -0.0031425866663690495 -0.0 -6.3154388932908985" stress="0.12640965257555206 -0.0 6.290192897065147e-05 -0.0 0.056403051215962424 0.0 6.290192897065147e-05 0.0 0.12640965257555206" free_energy=-25.27055609 pbc="T T T"
Ni       0.00000000       0.00000000       0.00000000       0.08618400      -0.00000000      -0.08618400
Ni      -4.38486000       1.46162000      -1.46162000      -0.00000000       0.00000000       0.00000000
Ni      -1.46162000       1.46162000      -1.46162000      -0.08618400       0.00000000       0.08618400
Ti      -2.92324000       2.92324000       0.00000000      -0.00000000       0.00000000       0.00000000
4
Lattice="2.05110628 2.05110628 0.0 -4.10221256 2.05110628 2.05110628 2.05110628 -2.05110628 4.10221256" Properties=species:S:1:pos:R:3:forces:R:3 config_type=Hf2NiTi energy=-32.73962553 force="_JSON [[0.115031, -0.115031, -0.694829], [-0.441477, 0.441477, 1.255523], [-0.044793, 0.044793, 0.161548], [0.371239, -0.371239, -0.722242]]" virial="3.4224970832926633 0.08761396126428381 -0.6475461216592504 0.08761396126428381 3.4224970832926633 0.6475461216592504 -0.6475461216592504 0.6475461216592504 0.7152669142795584" stress="-0.049577954745299954 -0.0012691671901844794 0.009380289167180438 -0.0012691671901844794 -0.049577954745299954 -0.009380289167180438 0.009380289167180438 -0.009380289167180438 -0.010361285881022888" free_energy=-32.73962703 pbc="T T T"
Hf       0.00000000       0.00000000       0.00000000       0.11503100      -0.11503100      -0.69482900
Hf      -0.00000000       2.05111000       2.05111000      -0.44147700       0.44147700       1.25552300
Ni       2.05111000       0.00000000       2.05111000      -0.04479300       0.04479300       0.16154800
Ti       0.00000000      -0.00000000       4.10221000       0.37123900      -0.37123900      -0.72224200
3
Lattice="1.927629215 1.927629215 0.0 -3.855258429 3.855258429 3.855258429 0.0 -1.927629215 1.927629215" Properties=species:S:1:pos:R:3:forces:R:3 config_type=HfNi2 energy=-20.26200991 force="_JSON [[-0.0, -0.0, -0.0], [-0.362665, 0.362665, 0.362665], [0.362665, -0.362665, -0.362665]]" virial="-0.1989751194098925 1.507290021791591 1.507290021791591 1.507290021791591 -0.1989751194098925 -1.507290021791591 1.507290021791591 -1.507290021791591 -0.1989751194098925" stress="0.004629957711089327 -0.03507317437445908 -0.03507317437445908 -0.03507317437445908 0.004629957711089327 0.03507317437445908 -0.03507317437445908 0.03507317437445908 0.004629957711089327" free_energy=-20.26201107 pbc="T T T"
Hf       0.00000000       0.00000000       0.00000000      -0.00000000      -0.00000000      -0.00000000
Ni      -0.00000000       1.92763000       1.92763000      -0.36266500       0.36266500       0.36266500
Ni      -1.92763000       1.92763000       3.85526000       0.36266500      -0.36266500      -0.36266500
4
Lattice="2.13099888 2.13099888 0.0 -2.13099888 2.13099888 0.0 0.0 0.0 8.523995519" Properties=species:S:1:pos:R:3:forces:R:3 config_type=Hf2Ti2 energy=-34.9535058 force="_JSON [[0.0, 0.0, -0.878305], [-0.0, -0.0, 0.878305], [-0.0, 0.0, 0.539655], [0.0, -0.0, -0.539655]]" virial="1.710908781707548 0.0 0.0 0.0 1.710908781707548 0.0 0.0 0.0 1.3632218015201025" stress="-0.02209974202614454 -0.0 -0.0 -0.0 -0.02209974202614454 -0.0 -0.0 -0.0 -0.01760868285914262" free_energy=-34.95351399 pbc="T T T"
Hf       0.00000000       0.00000000       0.00000000       0.00000000       0.00000000      -0.87830500
Hf       0.00000000       2.13100000       2.13100000      -0.00000000      -0.00000000       0.87830500
Ti       0.00000000       0.00000000       4.26200000      -0.00000000       0.00000000       0.53965500
Ti       0.00000000       2.13100000       6.39300000       0.00000000      -0.00000000      -0.53965500
4
Lattice="1.848008105 1.848008105 0.0 -3.696016211 1.848008105 1.848008105 1.848008105 -1.848008105 3.696016211" Properties=species:S:1:pos:R:3:forces:R:3 config_type=HfNi3 energy=-26.74101743 force="_JSON [[0.0, 0.0, -0.0], [-0.004113, 0.004113, 1.066435], [0.0, 0.0, -0.0], [0.004113, -0.004113, -1.066435]]" virial="1.4660486258556058 2.5035221598936714 -0.017554375759892396 2.5035221598936714 1.4660486258556058 0.017554375759892396 -0.017554375759892396 0.017554375759892396 -1.4282555879571697" stress="-0.02903666761581546 -0.049584945235520934 0.00034768326585732693 -0.049584945235520934 -0.02903666761581546 -0.00034768326585732693 0.00034768326585732693 -0.00034768326585732693 0.02828813590936653" free_energy=-26.74101611 pbc="T T T"
Hf       0.00000000       0.00000000       0.00000000       0.00000000       0.00000000      -0.00000000
Ni       0.00000000       1.84801000       1.84801000      -0.00411300       0.00411300       1.06643500
Ni       1.84801000       0.00000000       1.84801000       0.00000000       0.00000000      -0.00000000
Ni       0.00000000       0.00000000       3.69602000       0.00411300      -0.00411300      -1.06643500
4
Lattice="0.0 2.99339797 0.0 -2.99339797 0.0 2.99339797 2.99339797 0.0 2.99339797" Properties=species:S:1:pos:R:3:forces:R:3 config_type=HfNi3 energy=-27.30495601 force="_JSON [[-0.0, -0.0, -0.0], [0.0, 0.0, 0.0], [-0.0, 0.0, -0.0], [0.0, -0.0, 0.0]]" virial="-5.241998645737536 -0.0 0.0 -0.0 1.7101868104131472 -0.0 0.0 -0.0 -5.241998645737536" stress="0.09771776592385038 0.0 -0.0 0.0 -0.03188013689433059 0.0 -0.0 0.0 0.09771776592385038" free_energy=-27.30495721 pbc="T T T"
Hf       0.00000000       0.00000000       0.00000000      -0.00000000      -0.00000000      -0.00000000
Ni      -1.49670000       1.49670000       1.49670000       0.00000000       0.00000000       0.00000000
Ni       1.49670000       1.49670000       1.49670000      -0.00000000       0.00000000      -0.00000000
Ni       0.00000000       0.00000000       2.99340000       0.00000000      -0.00000000       0.00000000
3
Lattice="1.88907663 1.88907663 0.0 -3.778153261 3.778153261 3.778153261 0.0 -1.88907663 1.88907663" Properties=species:S:1:pos:R:3:forces:R:3 config_type=HfNi2 energy=-20.11428527 force="_JSON [[0.0, 0.0, 0.0], [-0.545268, 0.545268, 0.545268], [0.545268, -0.545268, -0.545268]]" virial="1.9094834571246362 1.4504787419884664 1.4504787419884664 1.4504787419884664 1.9094834571246362 -1.4504787419884664 1.4504787419884664 -1.4504787419884664 1.9094834571246362" stress="-0.0472080350056747 -0.035860091362032186 -0.035860091362032186 -0.035860091362032186 -0.0472080350056747 0.035860091362032186 -0.035860091362032186 0.035860091362032186 -0.0472080350056747" free_energy=-20.11428368 pbc="T T T"
Hf       0.00000000       0.00000000       0.00000000       0.00000000       0.00000000       0.00000000
Ni      -0.00000000       1.88908000       1.88908000      -0.54526800       0.54526800       0.54526800
Ni      -1.88908000       1.88908000       3.77815000       0.54526800      -0.54526800      -0.54526800
2
Lattice="1.691374932 1.691374932 -1.691374932 0.0 3.382749863 3.382749863 1.691374932 -1.691374932 1.691374932" Properties=species:S:1:pos:R:3:forces:R:3 config_type=HfTi energy=-17.36433991 force="_JSON [[-0.0, 0.0, 0.0], [0.0, -0.0, -0.0]]" virial="0.5321246872281616 0.0 0.0 0.0 0.453558360718893 -0.2639035152044632 0.0 -0.2639035152044632 0.453558360718893" stress="-0.013746867676175742 -0.0 -0.0 -0.0 -0.011717191323529767 0.006817662833293542 -0.0 0.006817662833293542 -0.011717191323529767" free_energy=-17.36434003 pbc="T T T"
Hf       0.00000000       0.00000000       0.00000000      -0.00000000       0.00000000       0.00000000
Ti       1.69137000       1.69137000       1.69137000       0.00000000      -0.00000000      -0.00000000
3
Lattice="2.036326629 2.036326629 0.0 -2.036326629 4.072653259 2.036326629 0.0 0.0 4.072653259" Properties=species:S:1:pos:R:3:forces:R:3 config_type=HfNiTi energy=-23.12960578 force="_JSON [[-0.68171, 0.68171, 0.0], [-0.092601, 0.092601, -0.0], [0.774311, -0.774311, -0.0]]" virial="-0.48430335868580193 0.8144004242475068 0.0 0.8144004242475068 -0.48430335868580193 0.0 0.0 0.0 -3.699320311539476" stress="0.009559251958346887 -0.016074757093347297 -0.0 -0.016074757093347297 0.009559251958346887 -0.0 -0.0 -0.0 0.07301773629775338" free_energy=-23.12960454 pbc="T T T"
Hf       0.00000000       0.00000000       0.00000000      -0.68171000       0.68171000       0.00000000
Ni       0.00000000       2.03633000       2.03633000      -0.09260100       0.09260100      -0.00000000
Ti       0.00000000       4.07265000       4.07265000       0.77431100      -0.77431100      -0.00000000
3
Lattice="1.927629215 1.927629215 0.0 -1.927629215 1.927629215 0.0 0.0 1.927629215 5.782887644" Properties=species:S:1:pos:R:3:forces:R:3 config_type=HfNi2 energy=-20.9914974 force="_JSON [[0.0, 0.0, 0.0], [-0.0, -0.0, 0.747414], [0.0, 0.0, -0.747414]]" virial="0.9191763687317478 0.0 0.0 0.0 0.9191763687317478 -0.0 0.0 -0.0 -3.8559201760302044" stress="-0.02138834105748549 -0.0 -0.0 -0.0 -0.02138834105748549 0.0 -0.0 0.0 0.0897235162052366" free_energy=-20.99149585 pbc="T T T"
Hf       0.00000000       0.00000000       0.00000000       0.00000000       0.00000000       0.00000000
Ni       0.00000000       1.92763000       1.92763000      -0.00000000      -0.00000000       0.74741400
Ni       0.00000000       3.85526000       3.85526000       0.00000000       0.00000000      -0.74741400
4
Lattice="1.526324768 1.526324768 -1.526324768 0.0 6.105299074 6.105299074 1.526324768 -1.526324768 1.526324768" Properties=species:S:1:pos:R:3:forces:R:3 config_type=Ni2Ti2 energy=-26.48206397 force="_JSON [[-0.0, 0.063351, 0.063351], [0.0, -0.063351, -0.063351], [0.0, -1.07721, -1.07721], [-0.0, 1.07721, 1.07721]]" virial="-2.4323367994822824 0.0 0.0 0.0 -4.1059609396372325 -1.5494904769677569 0.0 -1.5494904769677569 -4.1059609396372325" stress="0.04275263358030895 -0.0 -0.0 -0.0 0.07216954641509148 0.027235043523611006 -0.0 0.027235043523611006 0.07216954641509148" free_energy=-26.48206526 pbc="T T T"
Ni       0.00000000       0.00000000       0.00000000      -0.00000000       0.06335100       0.06335100
Ni       1.52632000       1.52632000       1.52632000       0.00000000      -0.06335100      -0.06335100
Ti       0.00000000       3.05265000       3.05265000       0.00000000      -1.07721000      -1.07721000
Ti       1.52632000       4.57897000       4.57897000      -0.00000000       1.07721000       1.07721000
3
Lattice="1.868699997 1.868699997 0.0 -1.868699997 1.868699997 0.0 0.0 1.868699997 5.606099992" Properties=species:S:1:pos:R:3:forces:R:3 config_type=Ni2Ti energy=-19.37566695 force="_JSON [[0.0, 0.0, 0.366214], [0.0, -0.0, -0.366214], [-0.0, -0.0, -0.0]]" virial="-1.1689185177412567 0.0 0.0 0.0 -1.1689185177412567 0.0 0.0 0.0 -3.1340330987792635" stress="0.029854804632036235 -0.0 -0.0 -0.0 0.029854804632036235 -0.0 -0.0 -0.0 0.08004488290183893" free_energy=-19.37567176 pbc="T T T"
Ni       0.00000000       0.00000000       0.00000000       0.00000000       0.00000000       0.36621400
Ni      -0.00000000       1.86870000       1.86870000       0.00000000      -0.00000000      -0.36621400
Ti      -0.00000000       3.73740000       3.73740000      -0.00000000      -0.00000000      -0.00000000
2
Lattice="0.0 3.129106669 0.0 -3.129106669 0.0 0.0 0.0 0.0 3.129106669" Properties=species:S:1:pos:R:3:forces:R:3 config_type=HfNi energy=-16.22097447 force="_JSON [[-0.0, 0.0, 0.0], [0.0, -0.0, -0.0]]" virial="0.576706867867208 0.0 -0.0 0.0 0.576706867867208 -0.0 -0.0 -0.0 0.576706867867208" stress="-0.018823224361457367 -0.0 0.0 -0.0 -0.018823224361457367 0.0 0.0 0.0 -0.018823224361457367" free_energy=-16.22097705 pbc="T T T"
Hf       0.00000000       0.00000000       0.00000000      -0.00000000       0.00000000       0.00000000
Ni      -1.56455000       1.56455000       1.56455000       0.00000000      -0.00000000      -0.00000000
3
Lattice="1.995600097 1.995600097 0.0 -3.991200194 3.991200194 3.991200194 0.0 -1.995600097 1.995600097" Properties=species:S:1:pos:R:3:forces:R:3 config_type=HfNiTi energy=-22.70499978 force="_JSON [[-0.776207, 0.776207, 0.776207], [-0.206337, 0.206337, 0.206337], [0.982545, -0.982545, -0.982545]]" virial="2.4845387502111533 2.0480118694582647 2.0480118694582647 2.0480118694582647 2.4845387502111533 -2.0480118694582647 2.0480118694582647 -2.0480118694582647 2.4845387502111533" stress="-0.05210434911871109 -0.0429497529215226 -0.0429497529215226 -0.0429497529215226 -0.05210434911871109 0.0429497529215226 -0.0429497529215226 0.0429497529215226 -0.05210434911871109" free_energy=-22.70499812 pbc="T T T"
Hf       0.00000000       0.00000000       0.00000000      -0.77620700       0.77620700       0.77620700
Ni      -0.00000000       1.99560000       1.99560000      -0.20633700       0.20633700       0.20633700
Ti      -1.99560000       1.99560000       3.99120000       0.98254500      -0.98254500      -0.98254500
4
Lattice="0.0 2.923239744 0.0 -2.923239744 0.0 2.923239744 2.923239744 0.0 2.923239744" Properties=species:S:1:pos:R:3:forces:R:3 config_type=Ni3Ti energy=-25.17142696 force="_JSON [[-0.0, -0.0, 0.0], [0.0, 0.0, -0.0], [-0.0, 0.0, -0.0], [0.0, -0.0, 0.0]]" virial="-6.477475438989649 -0.0 -0.0 -0.0 -1.8520493691968327 0.0 -0.0 0.0 -6.477475438989649" stress="0.12965297165319864 0.0 0.0 0.0 0.03707056964190599 -0.0 0.0 -0.0 0.12965297165319864" free_energy=-25.17143027 pbc="T T T"
Ni       0.00000000       0.00000000       0.00000000      -0.00000000      -0.00000000       0.00000000
Ni      -1.46162000       1.46162000       1.46162000       0.00000000       0.00000000      -0.00000000
Ni       1.46162000       1.46162000       1.46162000      -0.00000000       0.00000000      -0.00000000
Ti       0.00000000       0.00000000       2.92324000       0.00000000      -0.00000000       0.00000000
4
Lattice="1.967245618 1.967245618 0.0 -3.934491235 1.967245618 1.967245618 1.967245618 -1.967245618 3.934491235" Properties=species:S:1:pos:R:3:forces:R:3 config_type=HfNi2Ti energy=-28.51033755 force="_JSON [[-0.0, 0.0, -0.0], [0.008145, -0.008145, 0.330815], [-0.008145, 0.008145, -0.330815], [-0.0, 0.0, 0.0]]" virial="-1.729921914564747 2.4801428620925843 2.095320498115683 2.4801428620925843 -1.729921914564747 -2.095320498115683 2.095320498115683 -2.095320498115683 -2.1455744692167773" stress="0.028402773707481628 -0.040720298344775356 -0.03440208107173499 -0.040720298344775356 0.028402773707481628 0.03440208107173499 -0.03440208107173499 0.03440208107173499 0.03522717737063113" free_energy=-28.51033931 pbc="T T T"
Hf       0.00000000       0.00000000       0.00000000      -0.00000000       0.00000000      -0.00000000
Ni       0.00000000       1.96725000       1.96725000       0.00814500      -0.00814500       0.33081500
Ni      -0.00000000       0.00000000       3.93449000      -0.00814500       0.00814500      -0.33081500
Ti       1.96725000       0.00000000       1.96725000      -0.00000000       0.00000000       0.00000000
4
Lattice="1.561403881 1.561403881 -1.561403881 0.0 6.245615526 6.245615526 1.561403881 -1.561403881 1.561403881" Properties=species:S:1:pos:R:3:forces:R:3 config_type=HfNi2Ti energy=-28.70576114 force="_JSON [[0.0, -0.0, -0.0], [-0.0, 0.327537, 0.327537], [0.0, -0.327537, -0.327537], [0.0, 0.0, 0.0]]" virial="2.866648529388361 0.0 -0.0 0.0 -1.1517471154982903 -3.81950137955754 -0.0 -3.81950137955754 -1.1517471154982903" stress="-0.04706615302022512 -0.0 0.0 -0.0 0.018909993821325393 0.06271059550839753 0.0 0.06271059550839753 0.018909993821325393" free_energy=-28.70576117 pbc="T T T"
Hf       0.00000000       0.00000000       0.00000000       0.00000000      -0.00000000      -0.00000000
Ni       1.56140000       1.56140000       1.56140000      -0.00000000       0.32753700       0.32753700
Ni       1.56140000       4.68421000       4.68421000       0.00000000      -0.32753700      -0.32753700
Ti       0.00000000       3.12281000       3.12281000       0.00000000       0.00000000       0.00000000
4
Lattice="2.13029174 2.13029174 0.0 -4.26058348 4.26058348 0.0 0.0 0.0 4.26058348" Properties=species:S:1:pos:R:3:forces:R:3 config_type=HfTi3 energy=-32.99310708 force="_JSON [[-0.0, -0.0, -0.0], [-0.253538, 0.253538, -0.0], [0.0, -0.0, -0.0], [0.253538, -0.253538, 0.0]]" virial="-2.0598025751004045 0.20363471263548685 0.0 0.20363471263548685 -2.0598025751004045 0.0 0.0 0.0 -2.203438838765317" stress="0.026632893930691414 -0.002632961900226475 -0.0 -0.002632961900226475 0.026632893930691414 -0.0 -0.0 -0.0 0.028490086178643608" free_energy=-32.99310688 pbc="T T T"
Hf       0.00000000       0.00000000       0.00000000      -0.00000000      -0.00000000      -0.00000000
Ti       0.00000000       2.13029000       2.13029000      -0.25353800       0.25353800      -0.00000000
Ti      -2.13029000       2.13029000       0.00000000       0.00000000      -0.00000000      -0.00000000
Ti      -2.13029000       4.26058000       2.13029000       0.25353800      -0.25353800       0.00000000
4
Lattice="2.092965592 2.092965592 0.0 -2.092965592 2.092965592 4.185931183 2.092965592 -2.092965592 4.185931183" Properties=species:S:1:pos:R:3:forces:R:3 config_type=Hf2NiTi energy=-32.90527188 force="_JSON [[-0.0, -0.0, 0.0], [-0.0, -0.0, 0.0], [0.0, 0.0, 0.0], [-0.0, 0.0, -0.0]]" virial="-0.642383554654841 -0.18016169904110357 0.0 -0.18016169904110357 -0.642383554654841 0.0 0.0 0.0 -4.185593544712982" stress="0.008758266609204039 0.002456327191963979 -0.0 0.002456327191963979 0.008758266609204039 -0.0 -0.0 -0.0 0.05706644249642518" free_energy=-32.90526943 pbc="T T T"
Hf       0.00000000       0.00000000       0.00000000      -0.00000000      -0.00000000       0.00000000
Hf       0.00000000       0.00000000       4.18593000      -0.00000000      -0.00000000       0.00000000
Ni       0.00000000       2.09297000       2.09297000       0.00000000       0.00000000       0.00000000
Ti       2.09297000       0.00000000       2.09297000      -0.00000000       0.00000000      -0.00000000
4
Lattice="0.0 0.0 4.097537357 -2.048768679 4.097537357 2.048768679 -4.097537357 0.0 0.0" Properties=species:S:1:pos:R:3:forces:R:3 config_type=HfNiTi2 energy=-31.03740646 force="_JSON [[-0.0, -0.0, 0.0], [-0.0, -0.0, -0.0], [0.0, 0.0, 0.0], [0.0, -0.0, -0.0]]" virial="-3.4947901196962694 -0.0 0.0 -0.0 -2.4424581151385563 0.0 0.0 0.0 -3.4947901196962694" stress="0.0507986691001402 0.0 -0.0 0.0 0.03550245288911908 -0.0 -0.0 -0.0 0.0507986691001402" free_energy=-31.03741015 pbc="T T T"
Hf       0.00000000       0.00000000       0.00000000      -0.00000000      -0.00000000       0.00000000
Ni      -4.09754000       2.04877000       2.04877000      -0.00000000      -0.00000000      -0.00000000
Ti      -2.04877000       0.00000000       2.04877000       0.00000000       0.00000000       0.00000000
Ti      -2.04877000       2.04877000       4.09754000       0.00000000      -0.00000000      -0.00000000
4
Lattice="1.841525644 1.841525644 0.0 -1.841525644 1.841525644 3.683051287 1.841525644 -1.841525644 3.683051287" Properties=species:S:1:pos:R:3:forces:R:3 config_type=Ni3Ti energy=-25.04944492 force="_JSON [[0.0, -0.0, -0.0], [-0.0, -0.0, -0.0], [0.0, 0.0, 0.0], [0.0, -0.0, 0.0]]" virial="-4.8201089719893675 1.440827653800916 0.0 1.440827653800916 -4.8201089719893675 -0.0 0.0 -0.0 -5.901974835237653" stress="0.09647916964536449 -0.028839566999129186 -0.0 -0.028839566999129186 0.09647916964536449 0.0 -0.0 0.0 0.11813376724065104" free_energy=-25.04944701 pbc="T T T"
Ni       0.00000000       0.00000000       0.00000000       0.00000000      -0.00000000      -0.00000000
Ni       0.00000000       1.84153000       1.84153000      -0.00000000      -0.00000000      -0.00000000
Ni       1.84153000      -0.00000000       1.84153000       0.00000000       0.00000000       0.00000000
Ti       0.00000000       0.00000000       3.68305000       0.00000000      -0.00000000       0.00000000
4
Lattice="1.561403881 1.561403881 -1.561403881 -4.684211645 1.561403881 -1.561403881 0.0 3.122807763 3.122807763" Properties=species:S:1:pos:R:3:forces:R:3 config_type=HfNi2Ti energy=-28.83063298 force="_JSON [[-0.0, -0.0, -0.0], [-0.279599, 0.033836, -0.033836], [0.279599, -0.033836, 0.033836], [-0.0, -0.0, 0.0]]" virial="-2.2547205659891354 0.04237269471745547 -0.04237269471745547 0.04237269471745547 -6.1550369620833765 -3.3923473785036955 -0.04237269471745547 -3.3923473785036955 -6.1550369620833765" stress="0.037019195780290844 -0.0006956973316983256 0.0006956973316983256 -0.0006956973316983256 0.10105665498923251 0.05569735498664443 0.0006956973316983256 0.05569735498664443 0.10105665498923251" free_energy=-28.83063353 pbc="T T T"
Hf       0.00000000       0.00000000       0.00000000      -0.00000000      -0.00000000      -0.00000000
Ni      -0.00000000       3.12281000       0.00000000      -0.27959900       0.03383600      -0.03383600
Ni      -3.12281000       3.12281000       0.00000000       0.27959900      -0.03383600       0.03383600
Ti      -1.56140000       1.56140000      -1.56140000      -0.00000000      -0.00000000       0.00000000
4
Lattice="1.967245618 1.967245618 0.0 -1.967245618 1.967245618 0.0 0.0 0.0 7.868982471" Properties=species:S:1:pos:R:3:forces:R:3 config_type=HfNi2Ti energy=-29.55540396 force="_JSON [[-0.0, 0.0, 0.0], [0.0, -0.0, 0.558574], [0.0, 0.0, -0.558574], [-0.0, 0.0, 0.0]]" virial="-0.9124721440232362 0.0 -0.0 0.0 -0.9124721440232362 -0.0 -0.0 -0.0 -5.888464159637006" stress="0.014981450664293704 -0.0 0.0 -0.0 0.014981450664293704 0.0 0.0 0.0 0.0966799215448894" free_energy=-29.55541116 pbc="T T T"
Hf       0.00000000       0.00000000       0.00000000      -0.00000000       0.00000000       0.00000000
Ni       0.00000000       1.96725000       1.96725000       0.00000000      -0.00000000       0.55857400
Ni       0.00000000       1.96725000       5.90174000       0.00000000       0.00000000      -0.55857400
Ti       0.00000000       0.00000000       3.93449000      -0.00000000       0.00000000       0.00000000
1
Lattice="2.04437293 0.0 2.04437293 2.04437293 2.04437293 0.0 -2.04437293 2.04437293 0.0" Properties=species:S:1:pos:R:3:forces:R:3 config_type=Ti energy=-7.76308433 force="_JSON [[-0.0, 0.0, 0.0]]" virial="0.013304505799380952 -0.0 0.0 -0.0 0.013304505799380952 0.0 0.0 0.0 0.013304505799380952" stress="-0.0007785533653444258 0.0 -0.0 0.0 -0.0007785533653444258 -0.0 -0.0 -0.0 -0.0007785533653444258" free_energy=-7.76308126 pbc="T T T"
Ti       0.00000000       0.00000000       0.00000000      -0.00000000       0.00000000       0.00000000
4
Lattice="0.0 4.185931183 0.0 -4.185931183 0.0 0.0 0.0 0.0 4.185931183" Properties=species:S:1:pos:R:3:forces:R:3 config_type=Hf2NiTi energy=-33.0785297 force="_JSON [[0.0, 0.0, 0.0], [0.0, -0.0, -0.0], [-0.0, -0.0, 0.0], [-0.0, 0.0, 0.0]]" virial="-4.689714127699098 0.0 0.0 0.0 -2.3024588858715194 0.0 0.0 0.0 -2.3024588858715194" stress="0.06393962979490259 -0.0 -0.0 -0.0 0.03139175752975761 -0.0 -0.0 -0.0 0.03139175752975761" free_energy=-33.07853061 pbc="T T T"
Hf       0.00000000       0.00000000       0.00000000       0.00000000       0.00000000       0.00000000
Hf       0.00000000       2.09297000       2.09297000       0.00000000      -0.00000000      -0.00000000
Ni      -2.09297000       0.00000000       2.09297000      -0.00000000      -0.00000000       0.00000000
Ti      -2.09297000       2.09297000       0.00000000      -0.00000000       0.00000000       0.00000000
4
Lattice="0.0 -3.322375782 3.322375782 3.322375782 3.322375782 0.0 -3.322375782 3.322375782 0.0" Properties=species:S:1:pos:R:3:forces:R:3 config_type=Hf2NiTi energy=-33.11540336 force="_JSON [[0.0, 0.0, -0.0], [-0.0, -0.0, 0.0], [0.0, 0.0, -0.0], [0.0, 0.0, -0.0]]" virial="-2.8382090663736346 0.0 -0.0 0.0 -2.8382090663736346 -0.0 -0.0 -0.0 -2.8382090663736346" stress="0.03869618317676054 -0.0 0.0 -0.0 0.03869618317676054 0.0 0.0 0.0 0.03869618317676054" free_energy=-33.11540004 pbc="T T T"
Hf       0.00000000       0.00000000       0.00000000       0.00000000       0.00000000      -0.00000000
Hf       0.00000000       3.32238000       0.00000000      -0.00000000      -0.00000000       0.00000000
Ni      -1.66119000       1.66119000       1.66119000       0.00000000       0.00000000      -0.00000000