128
Lattice="12.936 0.0 0.0 0.0 12.936 0.0 0.0 0.0 12.936" Properties=species:S:1:pos:R:3:force:R:3:forces:R:3:charge:R:1 energy=-3122.5391835481837 virial="397.34938685384975 -1.1972288592415088 4.964291219283265 -1.1972288592415088 443.0005215828067 2.388230840170329 4.964291219283265 2.388230840170329 437.52858269171657" stress="-0.18355766585261837 0.00055306624890954 -0.0022932807724690123 0.00055306624890954 -0.20464645071452348 -0.00110325595821328 -0.0022932807724690123 -0.00110325595821328 -0.20211865939593235" pbc="T T T"
Ti       1.09892614      -1.78889357       0.70307160       1.22380546      -1.44650407       0.40942569       1.22380546      -1.44650407       0.40942569      -0.09130370
Ti      -0.92285424       0.80331266       4.19431690      -1.02185184       0.65924324       1.35771495      -1.02185184       0.65924324       1.35771495      -0.06941906
Ti      -0.63034541      -3.12179314       2.35454604      -0.43170034       0.93631454       0.67388981      -0.43170034       0.93631454       0.67388981       0.19314260
Ti       1.68307709       1.23511634       3.98515471       1.48238391      -2.22370218      -1.58639162       1.48238391      -2.22370218      -1.58639162      -0.42056283
Ti      -1.49441846       2.85523392       7.84499839       0.60737024      -1.83794911       1.03767680       0.60737024      -1.83794911       1.03767680       0.30266941
Ti       1.42530142       0.72255322       6.58248360       0.23613168       0.74141056       3.59918051       0.23613168       0.74141056       3.59918051      -0.15545980
Ti       0.12723850       1.01490682       9.43360387      -2.34859966      -2.70819876       1.09722832      -2.34859966      -2.70819876       1.09722832       0.39943209
Ti       3.10357925      -1.37439826      11.93139024       3.78876129      -4.25452234      -2.03398939       3.78876129      -4.25452234      -2.03398939      -0.20175435
Ti       0.95468974       5.79424138       5.48677853       2.85506687      -1.05704525      -1.05948269       2.85506687      -1.05704525      -1.05948269      -0.04605481
Ti       1.74968455       5.07537492       3.00692146      -0.78881241       2.35758037       0.46890492      -0.78881241       2.35758037       0.46890492      -0.07222783
Ti      -0.34577928       3.24828134       2.56787362       3.95408324      -2.13564138       2.56283700       3.95408324      -2.13564138       2.56283700      -0.25312227
Ti       0.16166119       2.86000730       5.45531818      -1.05415451       3.18151589       1.67101102      -1.05415451       3.18151589       1.67101102       0.29255101
Ti      -0.35774508       0.26518800      12.31112652       0.90612095       1.37606271      -3.57308633       0.90612095       1.37606271      -3.57308633      -0.22646279
Ti       0.36109550       3.45004414       9.90619476      -0.82777376       0.00084433       1.53314230      -0.82777376       0.00084433       1.53314230       0.31942264
Ti       0.52134667       5.09311018      13.50898718       2.82850732       0.36727232      -1.60972742       2.82850732       0.36727232      -1.60972742       0.26429067
Ti       2.57518246       6.09412373      11.36607410       2.27802680       3.48882434       2.41858746       2.27802680       3.48882434       2.41858746      -0.32762887
Ti       3.46030238       4.80220541       1.45134158       0.90276882       1.42820584      -1.05024521       0.90276882       1.42820584      -1.05024521      -0.24602353
Ti       2.90576194       7.72858733       1.68184817      -0.55328924      -1.94629867      -2.88968502      -0.55328924      -1.94629867      -2.88968502       0.14013560
Ti       5.89772938       4.28495945       1.40646660       3.34503036      -1.72631729      -0.34959330       3.34503036      -1.72631729      -0.34959330       0.19079508
Ti       0.50050678      11.74504716       4.03528171       1.77378320      -0.04372011       1.27646799       1.77378320      -0.04372011       1.27646799       0.14321796
Ti       0.38102988       5.74670158      10.69498030      -1.00661530      -0.72852216       0.68095009      -1.00661530      -0.72852216       0.68095009      -0.37421432
Ti      -1.41882048      10.61758421       5.50679052       0.27002385       1.46592244      -0.59045014       0.27002385       1.46592244      -0.59045014      -0.21912039
Ti       1.73280307       7.91288652       6.71633239       2.97635494       1.27610386       0.29586859       2.97635494       1.27610386       0.29586859       0.03143234
Ti       1.20128870       8.68666630       9.72999350       0.65916638      -0.01348418      -2.74980821       0.65916638      -0.01348418      -2.74980821      -0.26556740
Ti      -3.32742379       7.21454950      -2.24508161       1.70405433       4.23709027      -0.87545395       1.70405433       4.23709027      -0.87545395      -0.01719381
Ti       3.33554760      13.08323755       1.10170738       0.84139294      -2.87282302       1.60306340       0.84139294      -2.87282302       1.60306340      -0.19870196
Ti      -3.96853195      10.08383191       1.46123762       1.66828573      -4.31631630       3.03290424       1.66828573      -4.31631630       3.03290424      -0.13280849
Ti       1.33870783      10.43554882       6.87505711      -0.22256573       2.43421972       0.09838815      -0.22256573       2.43421972       0.09838815      -0.01582354
Ti      -1.54365288       7.27018723       5.35493482      -1.50826521       0.95302286      -1.70258575      -1.50826521       0.95302286      -1.70258575      -0.39557767
Ti      -0.99882737      13.18883412       6.78693708      -2.61665359       1.28413539      -0.54059943      -2.61665359       1.28413539      -0.54059943       0.09494179
Ti       0.84932602      11.01919526      10.91489230      -1.10635807       2.84783315      -0.57215746      -1.10635807       2.84783315      -0.57215746      -0.10014564
Ti       1.66228894       8.76351907      12.15592039      -1.16299758      -0.45976537       3.61796374      -1.16299758      -0.45976537       3.61796374      -0.00990912
Ti       6.63762977      -2.24220982       0.16415784      -2.23615386       2.89611515      -2.39654537      -2.23615386       2.89611515      -2.39654537      -0.11596491
Ti       8.42820502      -0.40281410       1.60041605      -1.29400038       2.53110858      -1.07676477      -1.29400038       2.53110858      -1.07676477       0.03656080
Ti       5.85306137      -0.40352558       2.06758675       0.55643787       0.35595171       0.57998010       0.55643787       0.35595171       0.57998010       0.16202390
Ti       3.06871673      -0.74832173       5.98804853       1.35878974       2.64308447       0.93471695       1.35878974       2.64308447       0.93471695      -0.05054096
Ti       6.84730939       1.55720981       7.65230374      -1.72012977       2.70490775      -1.45164416      -1.72012977       2.70490775      -1.45164416       0.03753078
Ti       5.56226009       0.04751393      11.53799354      -1.04633190      -0.05407938      -0.30904650      -1.04633190      -0.05407938      -0.30904650       0.20920740
Ti       2.58873938       1.77749695       9.24217694      -0.35933726       0.16953204      -2.20811717      -0.35933726       0.16953204      -2.20811717      -0.17194427
Ti       2.71720680       3.52918658      12.41116061      -3.34338614       1.62181638      -3.46478738      -3.34338614       1.62181638      -3.46478738       0.14499504
Ti       0.10982664       0.29058137       1.47206506      -0.55388210       3.57452543       3.16025325      -0.55388210       3.57452543       3.16025325      -0.39838396
Ti       4.63813812       2.18906873      -0.36721423       0.27067534       0.35740709       3.93437780       0.27067534       0.35740709       3.93437780      -0.43479158
Ti       4.48255685       2.65966747       6.65780993      -1.64974368      -0.82300102       0.36229578      -1.64974368      -0.82300102       0.36229578       1.04779110
Ti       5.72111417       4.69399577       8.06982607      -2.52684522      -3.41991338      -1.19818709      -2.52684522      -3.41991338      -1.19818709      -0.24019466
Ti       1.82656320       3.77669107       7.52155958      -0.69891083      -2.73690285      -2.39072530      -0.69891083      -2.73690285      -2.39072530       0.29488266
Ti       3.23472442       4.95957185       9.48617578      -0.40419734      -1.10622047      -0.84901869      -0.40419734      -1.10622047      -0.84901869      -0.24953770
Ti       2.55219518       0.78311957      11.90851939      -3.33180600       2.52192849      -3.02484543      -3.33180600       2.52192849      -3.02484543      -0.38036310
Ti       5.58436771       4.35765977      11.63228405       1.41973075      -0.43824674      -0.66566999       1.41973075      -0.43824674      -0.66566999      -0.13829201
Ti       5.42467279       6.79617338       2.62530946      -1.03332992      -0.83408953       0.14840038      -1.03332992      -0.83408953       0.14840038       0.25183540
Ti       4.03089641       8.81760449      -1.38356988       3.07257923      -1.08408127      -0.29611692       3.07257923      -1.08408127      -0.29611692      -0.07679170
Ti       5.67350969       9.97189670       2.84250490      -1.11773118      -1.48616578       3.46114481      -1.11773118      -1.48616578       3.46114481       0.20917877
Ti       9.82389593       7.53304675       0.23187780      -0.78961022       0.12010783      -1.57091829      -0.78961022       0.12010783      -1.57091829      -0.09566207
Ti       3.29161694       7.33613496       4.03081879      -0.67062485      -1.33168103       4.15698900      -0.67062485      -1.33168103       4.15698900       0.09793345
Ti       3.54304104       5.48006474       6.48785676      -2.53214394       0.63209074       0.05701507      -2.53214394       0.63209074       0.05701507       0.28168748
Ti       1.21642382       6.17242534       8.30791315       1.08298749      -0.75717649       0.44033825       1.08298749      -0.75717649       0.44033825      -0.00908034
Ti       4.91194150       6.38661962      12.69443314      -0.01995628       3.68657521       1.59726596      -0.01995628       3.68657521       1.59726596       0.21110404
Ti       5.66063837      10.46226166      -2.89106664      -1.12294813       2.58316221       2.17721250      -1.12294813       2.58316221       2.17721250      -0.09466825
Ti       2.10045713      10.10261498       2.87994168       1.23276496      -2.50805840      -1.25016489       1.23276496      -2.50805840      -1.25016489      -0.10021760
Ti       5.84562317      11.30141998       5.71951010       1.02305067       0.33896309      -2.49676744       1.02305067       0.33896309      -2.49676744       0.71132022
Ti       4.57740360       7.77132787       7.34587577       1.74678152      -2.75521833      -2.34506873       1.74678152      -2.75521833      -2.34506873      -0.06314230
Ti       0.42902244       8.94234634       4.71248131       1.97347363      -2.11236943      -2.55065556       1.97347363      -2.11236943      -2.55065556       0.19544422
Ti       3.57461782       9.74210160       5.01386424      -0.19599093      -1.98134737       0.16377304      -0.19599093      -1.98134737       0.16377304       0.25872027
Ti      -0.45345854      11.22654641       8.22840850       1.29571270       2.56296403       2.99254184       1.29571270       2.56296403       2.99254184      -0.13826983
Ti       2.25638767      12.11660789       9.19387392      -0.39199642      -1.78655460      -2.85924729      -0.39199642      -1.78655460      -2.85924729       0.31456755
Ti       4.76949026       0.00269069      -3.94767912      -0.05837954      -0.19685970      -2.46078079      -0.05837954      -0.19685970      -2.46078079       0.47565370
Ti       3.65439413      -0.90918089       3.50330165       0.60184043       1.06820013      -0.29724193       0.60184043       1.06820013      -0.29724193       0.15344652
Ti       8.13691217      -2.19800750       3.82124266      -4.35751581       0.84031639       0.20384667      -4.35751581       0.84031639       0.20384667       0.04407142
Ti       5.48187578       0.87116198       4.73562382       0.31046795      -0.33031109       1.29560180       0.31046795      -0.33031109       1.29560180       0.64632605
Ti       9.65615482      -4.02890426       4.62508570       2.24460201       0.51743181      -0.85081553       2.24460201       0.51743181      -0.85081553      -0.26142971
Ti       4.49040900       2.68361201      10.18840654       3.87247500      -0.85310600      -3.56865507       3.87247500      -0.85310600      -3.56865507      -0.16120875
Ti      10.43504431      -1.10911970       3.50352156       0.13582784       0.76584056       0.14189163       0.13582784       0.76584056       0.14189163      -0.03014871
Ti      10.39914691       2.86807937      10.67778835       0.59743942      -1.82890952       0.17898809       0.59743942      -1.82890952       0.17898809       0.23021823
Ti       6.77737738       1.48212926       0.52256266       3.10562263       0.65181286      -1.64351792       3.10562263       0.65181286      -1.64351792       0.16801350
Ti      10.34321165       2.93886516       5.18530505      -0.23763070      -1.98880241      -0.86572966      -0.23763070      -1.98880241      -0.86572966       0.14414078
Ti       4.65191496       2.25195062       2.43424474       0.13167901      -1.13547023       3.13929890       0.13167901      -1.13547023       3.13929890       0.26126065
Ti       8.25958426       7.00336930       5.76551052       0.52954857      -2.79085654      -0.93708567       0.52954857      -2.79085654      -0.93708567      -0.07735783
Ti      10.50374741       4.86393600       9.10131684      -1.04767410       2.28027945       0.03546923      -1.04767410       2.28027945       0.03546923       0.20231701
Ti       9.28473638       7.63480133       7.84796074       3.99385885      -0.20732819       0.30663465       3.99385885      -0.20732819       0.30663465       0.05041629
Ti       7.74967301       4.31070209       8.85694286       2.92563562      -4.18248816       0.57916692       2.92563562      -4.18248816       0.57916692      -0.51479808
Ti       7.58050894       6.35894952      13.67340374       0.53980603      -2.88012505      -1.89803514       0.53980603      -2.88012505      -1.89803514      -0.00982745
Ti       5.40209947       6.40170300      -2.98472328      -2.69750360       2.70007959       1.13894514      -2.69750360       2.70007959       1.13894514      -0.00040602
Ti       6.99515494       8.60335846      -2.15248572      -0.59829222      -3.10563290       0.01334935      -0.59829222      -3.10563290       0.01334935       0.28815363
Ti       6.91830216       3.14172751       4.55490790      -0.67476044       0.10698819      -0.65387736      -0.67476044       0.10698819      -0.65387736       0.24948754
Ti       6.72734093       8.51789030       0.97505100      -1.06795460      -1.32305285      -3.82875832      -1.06795460      -1.32305285      -3.82875832      -0.32297607
Ti       7.20934922       6.77942126       8.37854371      -0.27793656       2.66161835      -1.34442692      -0.27793656       2.66161835      -1.34442692      -0.22107080
Ti       8.14889090       9.71230999       6.28494266       0.28531559       1.64161728       1.40831734       0.28531559       1.64161728       1.40831734      -0.23815674
Ti       6.49255253       9.46855694       7.95029743       1.88252974      -2.37731144       1.50745800       1.88252974      -2.37731144       1.50745800      -0.34381822
Ti       7.90608218       5.63202394      10.88387177       0.19732419      -0.05232455       2.21310340       0.19732419      -0.05232455       2.21310340      -0.31732465
Ti       9.31635197       9.94815914      -3.59195206      -3.48593286      -1.47069429       1.05694917      -3.48593286      -1.47069429       1.05694917       0.35262658
Ti       8.68874899      10.16986925      -1.06427059       5.14911474      -1.67069783       0.19865899       5.14911474      -1.67069783       0.19865899      -0.29977479
Ti       6.06878210       8.20944432       4.87557840      -1.90108956       3.08804753       1.43043168      -1.90108956       3.08804753       1.43043168       0.17461822
Ti       4.24208954       9.77647255       0.81557599      -2.36391290       2.18244643       1.53266972      -2.36391290       2.18244643       1.53266972       0.07002475
Ti       4.05120593      10.23642497       7.70254716      -1.66417136       3.55121388       1.73662475      -1.66417136       3.55121388       1.73662475       0.15344492
Ti      10.78896034      12.03366226      10.83281338       1.27703451      -1.26027719      -0.37269379       1.27703451      -1.26027719      -0.37269379       0.28916602
Ti       3.39916685       8.22108672       9.27834600      -1.17016049      -1.87295645      -0.00460986      -1.17016049      -1.87295645      -0.00460986      -0.33168507
Ti       7.88092166      12.26661374      11.01028236       0.28226243       1.01397525      -0.38833032       0.28226243       1.01397525      -0.38833032       0.08743201
Ti       8.45476262       4.05896753      -0.20049506       0.40507115      -2.40475793      -0.88523711       0.40507115      -2.40475793      -0.88523711       0.17494897
Ti      11.97585127       2.86712210       0.34138104       0.62071872      -2.67443949      -4.23831419       0.62071872      -2.67443949      -4.23831419       0.05088670
Ti       8.38767653       2.83963310       1.92908100      -0.90552066       1.47167755       0.31837391      -0.90552066       1.47167755       0.31837391      -0.34194263
Ti      15.49225709       3.16657757       4.44624550       1.23007500       0.10663316       2.25981527       1.23007500       0.10663316       2.25981527      -0.39697461
Ti       9.11073425       1.58103792       7.32074112       0.65319990       1.29393889      -0.95890541       0.65319990       1.29393889      -0.95890541      -0.64563455
Ti      11.86270008       7.32768775       9.33037459      -2.28492096      -3.04817837      -2.48733466      -2.28492096      -3.04817837      -2.48733466      -0.03710520
Ti       9.70879140       0.59704814       9.21331673       1.38211905      -0.92223167       0.53683468       1.38211905      -0.92223167       0.53683468      -0.11437105
Ti       7.20325637      -0.92432894       8.18449078       2.82670353      -0.37682601      -0.34180314       2.82670353      -0.37682601      -0.34180314       0.29202009
Ti      12.15467854       5.41782965       3.88466786       0.19328724      -0.18204130      -2.19904129       0.19328724      -0.18204130      -2.19904129      -0.18670841
Ti      10.46605190       2.09229451       2.62499899      -0.16365453      -3.19012565      -2.01924499      -0.16365453      -3.19012565      -2.01924499      -0.13596528
Ti       8.30385125       5.19307958       3.10619232      -2.63239919      -0.49528169      -0.64623694      -2.63239919      -0.49528169      -0.64623694       0.13171789
Ti       9.88021927       5.22611813       4.75139280      -0.61083338       1.18338446      -0.61468574      -0.61083338       1.18338446      -0.61468574      -0.52350192
Ti      11.77932756       5.42852772       6.84282060      -1.26623277      -1.27420107       2.40186313      -1.26623277      -1.27420107       2.40186313       0.07039579
Ti      17.60977680       4.47668390       4.00699068      -0.93693526       0.65709108       0.24701476      -0.93693526       0.65709108       0.24701476       0.12399280
Ti      10.95024638       5.05877803      11.90362958      -1.16023974       1.56111391      -0.71225739      -1.16023974       1.56111391      -0.71225739       0.02931028
Ti      15.08875738       2.19525214      14.63194841      -2.22722995       2.95908042      -1.99489929      -2.22722995       2.95908042      -1.99489929      -0.09798218
Ti      10.80311232       4.85715754       1.57454405      -3.34850086       3.40711458       0.20646062      -3.34850086       3.40711458       0.20646062       0.20130025
Ti      13.04931936       7.27352472       1.79415852       2.16014290       0.78396551       1.29913076       2.16014290       0.78396551       1.29913076      -0.02499221
Ti       5.86029259       5.88113249       5.69384508       2.17803596      -1.37986773      -1.23703080       2.17803596      -1.37986773      -1.23703080      -0.16334763
Ti      10.80858425       7.77463949       2.33412010      -1.65067478      -2.17108629       3.43891972      -1.65067478      -2.17108629       3.43891972      -0.24429265
Ti      11.81609167       8.74786651       7.05867070       0.33334029       0.58252921       3.45863814       0.33334029       0.58252921       3.45863814      -0.12236400
Ti       9.92398176      11.31313999       7.42984334       0.53762172       0.58279576       0.18805366       0.53762172       0.58279576       0.18805366      -0.04024515
Ti      12.29985926       7.51062866      12.13548151       0.11989341      -1.19828803       0.36318203       0.11989341      -1.19828803       0.36318203      -0.03678904
Ti      11.76262718       9.99317642      12.54450490      -1.73862769      -1.64703466       1.14579832      -1.73862769      -1.64703466       1.14579832       0.11150076
Ti      11.92102850       9.54247325      -2.87435333      -3.79798227       0.40997850      -0.31448236      -3.79798227       0.40997850      -0.31448236      -0.29613176
Ti      10.74792734      11.67082039       1.01094840       2.58075659       1.98367410      -2.06998792       2.58075659       1.98367410      -2.06998792      -0.27750505
Ti       8.35224482       4.02039238       6.44810443      -1.49493517       2.76893423       2.39352954      -1.49493517       2.76893423       2.39352954       0.10755013
Ti       8.30936198      14.03096772       3.75948619      -1.46547599      -0.90443830       0.43506082      -1.46547599      -0.90443830       0.43506082      -0.13221328
Ti       7.89566870       7.74200196       2.99459345       2.49150612       2.42677249       0.73920085       2.49150612       2.42677249       0.73920085       0.05769930
Ti       8.74645649      12.67611576       5.60417273      -1.09809317      -2.12195340       1.74595098      -1.09809317      -2.12195340       1.74595098      -0.03896673
Ti       7.53780720      14.99076718      10.35083095      -1.84483301       0.19138793       2.45018906      -1.84483301       0.19138793       2.45018906       0.81408364
Ti       9.96452318      13.85106677      12.64301254      -3.19026065       2.72809072       0.07463497      -3.19026065       2.72809072       0.07463497       0.54090493
54
Lattice="10.097999999999999 0.0 0.0 0.0 10.097999999999999 0.0 0.0 0.0 10.097999999999999" Properties=species:S:1:pos:R:3:force:R:3:forces:R:3:charge:R:1 energy=-1320.296629214448 virial="70.651328082672 2.141936288432161 6.578027275341074 2.141936288432161 64.86979520310035 4.915270903534969 6.578027275341074 4.915270903534969 68.35483138990048" stress="-0.06861423583628623 -0.0020801777635207574 -0.006388362781795653 -0.0020801777635207574 -0.06299940209912021 -0.0047735487233834485 -0.006388362781795653 -0.0047735487233834485 -0.06638395411404183" pbc="T T T"
Ti       4.62804467       0.75423982      -1.90287722       2.53572417      -2.44991582      -0.30704586       2.53572417      -2.44991582      -0.30704586      -0.14853068
Ti       2.93789192      -1.86598922       2.11600561      -1.55056377       2.29503921      -0.87577750      -1.55056377       2.29503921      -0.87577750       0.41201160
Ti       1.48224503       1.17338760       6.23984704      -1.83772001       0.28063447      -3.35926810      -1.83772001       0.28063447      -3.35926810      -0.22275888
Ti      -1.36664312      -0.69017810       7.58704142       0.65512209       3.93844039       0.40922589       0.65512209       3.93844039       0.40922589       0.28399433
Ti      -2.60154774      -0.68822919       2.77726304       1.04352626      -0.74463284       1.64371580       1.04352626      -0.74463284       1.64371580       0.39201034
Ti      -1.51738607       1.25082916      11.63617785       2.83648746       0.28563833      -0.05985603       2.83648746       0.28563833      -0.05985603      -0.15093197
Ti       0.41117036       3.58096286      -5.98851792       2.26673596      -1.78950396       0.56488468       2.26673596      -1.78950396       0.56488468       0.27800018
Ti      -0.73123657       3.86455509       1.87180567      -0.60876107       0.84546574      -1.02698891      -0.60876107       0.84546574      -1.02698891      -0.20498049
Ti       0.46852700       5.95461893       0.15265147       2.76063948      -1.05155290       1.07804405       2.76063948      -1.05155290       1.07804405       0.33545807
Ti       0.65154316       6.60296102       3.08751399      -2.57778446      -1.12156602      -0.44649619      -2.57778446      -1.12156602      -0.44649619       1.10385691
Ti      -2.05513486       4.75370419       4.17988534      -1.18908735      -2.85998599      -1.18840082      -1.18908735      -2.85998599      -1.18840082      -0.00467719
Ti      -1.15332287       2.31982364       6.90072075       0.98188633       2.61138426      -0.82546601       0.98188633       2.61138426      -0.82546601      -0.12338011
Ti       3.28143598       4.44107011      -0.86186430      -1.95672006      -0.77165096       0.29743165      -1.95672006      -0.77165096       0.29743165      -0.05315075
Ti       4.11807548       6.21218862       1.13350050       0.80448228       0.03618285       1.14571684       0.80448228       0.03618285       1.14571684      -0.15729559
Ti       4.58223005      12.36492022       0.65976293       1.04083889       2.60706440       0.29437500       1.04083889       2.60706440       0.29437500       0.20201080
Ti      -2.47685764       6.85314907       4.88621014       1.95158498       2.86556844      -0.69873621       1.95158498       2.86556844      -0.69873621      -0.54938580
Ti       3.01360673       6.57174811       4.47104097       0.98435108       0.17617607      -1.44471968       0.98435108       0.17617607      -1.44471968      -0.22355692
Ti       6.88329160       4.20204035      10.99759043      -2.60150651       0.81204438       2.92962678      -2.60150651       0.81204438       2.92962678       0.19392347
Ti       2.98696820      -2.77748519      -1.19429046      -0.76652675       0.21222842       2.36891041      -0.76652675       0.21222842       2.36891041      -0.04695901
Ti       1.34972897       2.87164904       0.56320585       0.09011581       0.70355037      -1.23914672       0.09011581       0.70355037      -1.23914672      -0.11927541
Ti       3.42435298       2.27505920       3.49323143       0.83255587       0.88062847       0.35985905       0.83255587       0.88062847       0.35985905      -0.14767325
Ti       5.78121608       7.64208562       3.65281013      -4.55962510       1.24206458      -2.32592631      -4.55962510       1.24206458      -2.32592631      -0.05968357
Ti       9.06728704       1.02507827       4.70125517      -2.31286032      -1.63799088      -1.94997341      -2.31286032      -1.63799088      -1.94997341       0.77710541
Ti       4.70019488       0.25342951       4.66664933       0.17827481      -0.60876493       1.45143520       0.17827481      -0.60876493       1.45143520      -0.32270885
Ti       2.81156594       4.22946652       5.25407018       0.12257050      -0.81077479       0.67500878       0.12257050      -0.81077479       0.67500878       0.09859629
Ti       6.41483528       9.22609829       5.85724392       4.24591434      -0.12159356      -0.57427318       4.24591434      -0.12159356      -0.57427318      -0.58384122
Ti       2.45594468       9.04761614       4.93517534      -0.49309477       0.16095496       0.52767413      -0.49309477       0.16095496       0.52767413       0.39483999
Ti       2.86349996       4.12976896       2.08943777      -1.92283555       2.05717370       1.21433726      -1.92283555       2.05717370       1.21433726      -0.24632928
Ti       6.44761339       1.66345364       6.24214939       0.93187000       1.52072386      -2.20512334       0.93187000       1.52072386      -2.20512334       0.30225378
Ti       2.68138253       0.50203217      10.21375337       0.35009219      -1.93159493       3.32345022       0.35009219      -1.93159493       3.32345022      -0.34580651
Ti       1.20365131       4.01032982      -2.32136863      -2.11265628      -2.08892148       0.62978862      -2.11265628      -2.08892148       0.62978862       0.23019408
Ti       4.74125335      10.39758746       2.26834403       0.00614807      -2.28911642      -0.90039093       0.00614807      -2.28911642      -0.90039093      -0.41280683
Ti       5.35928125       5.68038755       5.88164069      -1.64082796       2.39675516      -1.12527585      -1.64082796       2.39675516      -1.12527585      -0.31127488
Ti       1.59391881       9.48641463       8.54530123      -2.13511996      -1.19085486      -4.01995598      -2.13511996      -1.19085486      -4.01995598      -0.56529089
Ti       4.90723418       3.78565942       7.15421084      -0.99262091      -3.50076480       0.73216610      -0.99262091      -3.50076480       0.73216610      -0.00834088
Ti       7.30828613       7.42103030       9.06094550      -0.90203396      -0.36115689      -1.35874556      -0.90203396      -0.36115689      -1.35874556      -0.38888064
Ti       6.99615695      -0.21521867      -0.33583928       1.37100249       2.03178116       0.77021912       1.37100249       2.03178116       0.77021912      -0.07746287
Ti      11.32339230       0.91401037       2.80055912      -0.89885878      -1.69645196      -0.85819100      -0.89885878      -1.69645196      -0.85819100       0.80816676