3
Lattice="1.457962826 1.457962826 -1.457962826 -2.905441522 2.905441522 -0.0 0.0 2.905441522 2.905441522" Properties=species:S:1:pos:R:3:forces:R:3 config_type=Ni2Ti energy=-19.6759285 force="_JSON [[0.082956, 0.082956, -0.082956], [-0.082956, -0.082956, 0.082956], [0.0, -0.0, -0.0]]" virial="-1.276289306275763 0.38747653175091845 -0.38747653175091845 0.38747653175091845 -1.276289306275763 -0.38747653175091845 -0.38747653175091845 -0.38747653175091845 -1.276289306275763" stress="0.0345666384598389 -0.010494298682004586 0.010494298682004586 -0.010494298682004586 0.0345666384598389 0.010494298682004586 0.010494298682004586 0.010494298682004586 0.0345666384598389" free_energy=-19.67592764 pbc="T T T"
Ni       0.00329000       0.00329000      -0.00329000       0.08295600       0.08295600      -0.08295600
Ni       0.00021000       2.90565000      -0.00021000      -0.08295600      -0.08295600       0.08295600
Ti      -1.45097000       4.35991000       1.45097000       0.00000000      -0.00000000      -0.00000000
4
Lattice="1.985272957 1.985272957 0.0 -1.985272957 1.985272957 0.0 0.0 0.0 7.93317739" Properties=species:S:1:pos:R:3:forces:R:3 config_type=Hf2Ni2 energy=-29.74099512 force="_JSON [[-0.0, -0.0, -3.195678], [0.0, 0.0, 3.195678], [0.0, 0.0, 0.807821], [-0.0, -0.0, -0.807821]]" virial="4.335526493133972 0.0 0.0 0.0 4.335526493133972 0.0 0.0 0.0 -0.21957116265107662" stress="-0.0693304836420192 -0.0 -0.0 -0.0 -0.0693304836420192 -0.0 -0.0 -0.0 0.00351121713234776" free_energy=-29.74101008 pbc="T T T"
Hf       0.00000000       0.00000000       7.91030000      -0.00000000      -0.00000000      -3.19567800
Hf       0.00000000       1.98527000       2.00617000       0.00000000       0.00000000       3.19567800
Ni       0.00000000       0.00000000       3.97222000       0.00000000       0.00000000       0.80782100
Ni       0.00000000       1.98527000       5.94425000      -0.00000000      -0.00000000      -0.80782100
4
Lattice="1.811468463 1.811468463 -0.0 -3.610367423 3.610367423 -0.0 0.0 -0.0 3.611311577" Properties=species:S:1:pos:R:3:forces:R:3 config_type=Ni3Ti energy=-25.36634806 force="_JSON [[-0.37774, 0.37774, -0.0], [0.0, 0.0, 0.0], [0.37774, -0.37774, 0.0], [0.0, 0.0, 0.0]]" virial="-1.7364461511206852 0.8173968766273844 0.0 0.8173968766273844 -1.7364461511206852 -0.0 0.0 -0.0 -2.7691177856691853" stress="0.03676073488738802 -0.017304371840201054 -0.0 -0.017304371840201054 0.03676073488738802 0.0 -0.0 0.0 0.058622494412071756" free_energy=-25.3663464 pbc="T T T"
Ni      -0.01019000       0.01019000      -0.00000000      -0.37774000       0.37774000      -0.00000000
Ni       0.00314000       1.80833000       1.80566000       0.00000000       0.00000000       0.00000000
Ni      -1.79500000       1.79500000      -0.00000000       0.37774000      -0.37774000       0.00000000
Ti      -1.80204000       3.61351000       1.80566000       0.00000000       0.00000000       0.00000000
4
Lattice="1.6374207 1.637635844 -1.637635844 0.0 6.529363543 6.529363543 1.6374207 -1.637635844 1.637635844" Properties=species:S:1:pos:R:3:forces:R:3 config_type=Hf2NiTi energy=-32.59457476 force="_JSON [[0.0, 0.953835, 0.953835], [-0.0, -0.953835, -0.953835], [0.0, 0.0, -0.0], [0.0, 0.0, 0.0]]" virial="1.5457488626981766 -0.0 0.0 -0.0 -0.5278528802741438 -2.8804902437779254 0.0 -2.8804902437779254 -0.5278528802741438" stress="-0.02207143054074953 0.0 -0.0 0.0 0.007537102865706728 0.041129928588707065 -0.0 0.041129928588707065 0.007537102865706728" free_energy=-32.5945788 pbc="T T T"
Hf       0.00000000       0.01314000       0.01314000       0.00000000       0.95383500       0.95383500
Hf       0.00000000       3.25154000       3.25154000      -0.00000000      -0.95383500      -0.95383500
Ni       1.63742000       1.63234000       1.63234000       0.00000000       0.00000000      -0.00000000
Ti       1.63742000       4.89702000       4.89702000       0.00000000       0.00000000       0.00000000
4
Lattice="1.937640323 1.937640323 0.0 -3.873325165 3.873325165 -0.0 0.0 -0.0 3.851583051" Properties=species:S:1:pos:R:3:forces:R:3 config_type=HfNi2Ti energy=-29.6915597 force="_JSON [[-0.0, -0.0, 0.0], [-0.329957, 0.329957, -0.0], [0.329957, -0.329957, 0.0], [0.0, 0.0, 0.0]]" virial="-0.6384578021346928 0.3960797552322651 -0.0 0.3960797552322651 -0.6384578021346928 0.0 -0.0 0.0 -4.829084430554035" stress="0.011043476586972802 -0.00685103618258964 0.0 -0.00685103618258964 0.011043476586972802 -0.0 0.0 -0.0 0.08352921785438153" free_energy=-29.69156048 pbc="T T T"
Hf      -3.87333000       3.87333000       3.85158000      -0.00000000      -0.00000000       0.00000000
Ni      -0.00843000       1.94607000       1.92579000      -0.32995700       0.32995700      -0.00000000
Ni      -1.92725000       3.86489000       1.92579000       0.32995700      -0.32995700       0.00000000
Ti      -1.93666000       1.93666000       3.85158000       0.00000000       0.00000000       0.00000000
4
Lattice="0.0 -2.978411819 2.978411819 2.978411819 2.978411819 -0.0 -2.978411819 2.978411819 -0.0" Properties=species:S:1:pos:R:3:forces:R:3 config_type=HfNi3 energy=-27.66594843 force="_JSON [[-0.0, -0.0, 0.0], [0.0, 0.0, 0.0], [-0.0, -0.0, 0.0], [0.0, -0.0, -0.0]]" virial="-2.901868282705007 -0.0 0.0 -0.0 -2.901868282705007 0.0 0.0 0.0 -2.901868282705007" stress="0.054915312617698636 0.0 -0.0 0.0 0.054915312617698636 -0.0 -0.0 -0.0 0.054915312617698636" free_energy=-27.6659439 pbc="T T T"
Hf       0.00000000       0.00000000       0.00000000      -0.00000000      -0.00000000       0.00000000
Ni      -1.48921000       1.48921000       1.48921000       0.00000000       0.00000000       0.00000000
Ni       0.00000000       2.97841000      -0.00000000      -0.00000000      -0.00000000       0.00000000
Ni       1.48921000       1.48921000       1.48921000       0.00000000      -0.00000000      -0.00000000
4
Lattice="1.921547361 1.921547361 0.0 -1.921547361 1.921547361 0.0 -0.0 0.0 7.673375772" Properties=species:S:1:pos:R:3:forces:R:3 config_type=Ni2Ti2 energy=-26.7472531 force="_JSON [[-0.0, 0.0, 0.3739], [0.0, -0.0, -0.3739], [0.0, -0.0, -1.436494], [-0.0, 0.0, 1.436494]]" virial="-2.9968074685119084 0.0 0.0 0.0 -2.9968074685119084 -0.0 0.0 -0.0 -5.67669984185592" stress="0.05288593585749069 -0.0 -0.0 -0.0 0.05288593585749069 0.0 -0.0 0.0 0.10017913625518808" free_energy=-26.74725245 pbc="T T T"
Ni      -0.00000000       0.00000000       0.00508000      -0.00000000       0.00000000       0.37390000
Ni      -0.00000000       1.92155000       1.91326000       0.00000000      -0.00000000      -0.37390000
Ti      -0.00000000       0.00000000       3.81706000       0.00000000      -0.00000000      -1.43649400
Ti      -0.00000000       1.92155000       5.77466000      -0.00000000       0.00000000       1.43649400
4
Lattice="1.587024235 1.575128511 -1.575128511 -4.71071289 1.570113279 -1.570113279 -0.0 3.150345103 3.150345103" Properties=species:S:1:pos:R:3:forces:R:3 config_type=Hf2Ni2 energy=-30.63627572 force="_JSON [[2.026208, -0.277468, 0.277468], [-2.026208, 0.277468, -0.277468], [0.372049, -0.409584, 0.409584], [-0.372049, 0.409584, -0.409584]]" virial="-0.7429332841217899 2.821043801520092 -2.821043801520092 2.821043801520092 1.28257013143488 -0.5848894090396694 -2.821043801520092 -0.5848894090396694 1.28257013143488" stress="0.01189624149582398 -0.045172048487302455 0.045172048487302455 -0.045172048487302455 -0.020537192699497917 0.009365559205643354 0.045172048487302455 0.009365559205643354 -0.020537192699497917" free_energy=-30.63627416 pbc="T T T"
Hf      -4.68198000       1.56535000      -1.56535000       2.02620800      -0.27746800       0.27746800
Hf      -0.01615000       3.15381000      -0.00346000      -2.02620800       0.27746800      -0.27746800
Ni      -1.55745000       1.56757000      -1.56757000       0.37204900      -0.40958400       0.40958400
Ni      -3.14067000       3.15159000      -0.00125000      -0.37204900       0.40958400      -0.40958400
4
Lattice="-0.0 3.271278188 0.0 -6.544475241 0.0 0.0 0.0 0.0 3.271278188" Properties=species:S:1:pos:R:3:forces:R:3 config_type=Hf2NiTi energy=-33.71756391 force="_JSON [[-1.24645, 0.0, 0.0], [1.24645, -0.0, -0.0], [-0.0, 0.0, -0.0], [-0.0, 0.0, -0.0]]" virial="0.9194333061973228 0.0 0.0 0.0 -1.1591701877232887 0.0 0.0 0.0 -1.1591701877232887" stress="-0.013128359087837218 -0.0 -0.0 -0.0 0.016551502284909637 -0.0 -0.0 -0.0 0.016551502284909637" free_energy=-33.7175601 pbc="T T T"
Hf      -0.01877000       0.00000000       0.00000000      -1.24645000       0.00000000       0.00000000
Hf      -3.25347000       0.00000000       0.00000000       1.24645000      -0.00000000      -0.00000000
Ni      -1.63612000       1.63564000       1.63564000      -0.00000000       0.00000000      -0.00000000
Ti      -4.90836000       1.63564000       1.63564000      -0.00000000       0.00000000      -0.00000000
4
Lattice="1.863512672 1.863512672 -0.0 -1.863512672 1.863512672 -0.0 0.0 -0.0 7.419427818" Properties=species:S:1:pos:R:3:forces:R:3 config_type=HfNi3 energy=-25.98577882 force="_JSON [[-0.0, -0.0, -0.0], [0.0, -0.0, 1.45598], [-0.0, -0.0, -0.0], [-0.0, 0.0, -1.45598]]" virial="1.777000833024289 0.0 -0.0 0.0 1.777000833024289 -0.0 -0.0 -0.0 -2.3512723154138224" stress="-0.034484387852578006 -0.0 0.0 -0.0 -0.034484387852578006 0.0 0.0 0.0 0.04562867105344295" free_energy=-25.9857836 pbc="T T T"
Hf       0.00000000      -0.00000000       7.41943000      -0.00000000      -0.00000000      -0.00000000
Ni       0.00000000       1.86351000       1.87478000       0.00000000      -0.00000000       1.45598000
Ni       0.00000000      -0.00000000       3.70971000      -0.00000000      -0.00000000      -0.00000000
Ni       0.00000000       1.86351000       5.54465000      -0.00000000       0.00000000      -1.45598000
4
Lattice="-0.0 3.203041591 0.0 -6.412360753 -0.0 -0.0 0.0 -0.0 3.203041591" Properties=species:S:1:pos:R:3:forces:R:3 config_type=HfNiTi2 energy=-31.16066425 force="_JSON [[0.0, -0.0, -0.0], [0.0, -0.0, -0.0], [-2.011601, -0.0, -0.0], [2.011601, 0.0, 0.0]]" virial="0.7816367801312739 0.0 0.0 0.0 -1.4847614771044222 0.0 0.0 0.0 -1.4847614771044222" stress="-0.011881243149394483 -0.0 -0.0 -0.0 0.022569066063356204 -0.0 -0.0 -0.0 0.022569066063356204" free_energy=-31.16066006 pbc="T T T"
Hf       0.00000000       0.00000000       0.00000000       0.00000000      -0.00000000      -0.00000000
Ni      -3.20618000      -0.00000000      -0.00000000       0.00000000      -0.00000000      -0.00000000
Ti      -1.63149000       1.60152000       1.60152000      -2.01160100      -0.00000000      -0.00000000
Ti      -4.78087000       1.60152000       1.60152000       2.01160100       0.00000000       0.00000000
2
Lattice="-0.0 3.026697884 -0.0 -3.026697884 0.0 -0.0 -0.0 -0.0 3.026697884" Properties=species:S:1:pos:R:3:forces:R:3 config_type=NiTi energy=-14.00674877 force="_JSON [[0.0, -0.0, -0.0], [-0.0, 0.0, 0.0]]" virial="-1.6266230963818429 0.0 0.0 0.0 -1.6266230963818429 0.0 0.0 0.0 -1.6266230963818429" stress="0.058665086470346774 -0.0 -0.0 -0.0 0.058665086470346774 -0.0 -0.0 -0.0 0.058665086470346774" free_energy=-14.00674662 pbc="T T T"
Ni      -0.00000000       0.00000000       0.00000000       0.00000000      -0.00000000      -0.00000000
Ti      -1.51335000       1.51335000       1.51335000      -0.00000000       0.00000000       0.00000000
3
Lattice="1.725011827 1.725011827 -1.725011827 -3.444829908 3.444829908 0.0 0.0 3.444829908 3.444829908" Properties=species:S:1:pos:R:3:forces:R:3 config_type=Hf2Ti energy=-27.12781624 force="_JSON [[0.238017, 0.238017, -0.238017], [-0.238017, -0.238017, 0.238017], [-0.0, 0.0, 0.0]]" virial="0.16881976427762066 0.1435725779916092 -0.1435725779916092 0.1435725779916092 0.16881976427762066 -0.1435725779916092 -0.1435725779916092 -0.1435725779916092 0.16881976427762066" stress="-0.0027489977963857702 -0.002337882073282092 0.002337882073282092 -0.002337882073282092 -0.0027489977963857702 0.002337882073282092 0.002337882073282092 0.002337882073282092 -0.0027489977963857702" free_energy=-27.12781597 pbc="T T T"
Hf      -3.43289000       6.90160000       3.43289000       0.23801700       0.23801700      -0.23801700
Hf      -0.01021000       3.43462000       0.01021000      -0.23801700      -0.23801700       0.23801700
Ti      -1.72155000       5.16811000       1.72155000      -0.00000000       0.00000000       0.00000000
4
Lattice="0.0 3.007032709 -0.0 -6.011318955 0.0 0.0 -0.0 -0.0 3.007032709" Properties=species:S:1:pos:R:3:forces:R:3 config_type=Ni2Ti2 energy=-27.33089476 force="_JSON [[0.125536, -0.0, -0.0], [-0.125536, 0.0, 0.0], [2.445865, -0.0, -0.0], [-2.445865, 0.0, 0.0]]" virial="-2.2715522032307915 0.0 0.0 0.0 -1.170894506129495 0.0 0.0 0.0 -1.170894506129495" stress="0.041790411325917154 -0.0 -0.0 -0.0 0.021541289238615258 -0.0 -0.0 -0.0 0.021541289238615258" free_energy=-27.3308859 pbc="T T T"
Ni      -6.01110000       0.00000000       0.00000000       0.12553600      -0.00000000      -0.00000000
Ni      -1.50305000       1.50352000       1.50352000      -0.12553600       0.00000000       0.00000000
Ti      -2.98999000       0.00000000       0.00000000       2.44586500      -0.00000000      -0.00000000
Ti      -4.52416000       1.50352000       1.50352000      -2.44586500       0.00000000       0.00000000
4
Lattice="2.069542404 2.069542404 -0.0 -4.13290077 4.13290077 -0.0 0.0 -0.0 4.115960777" Properties=species:S:1:pos:R:3:forces:R:3 config_type=Hf2NiTi energy=-33.04396154 force="_JSON [[-0.329063, 0.329063, -0.0], [0.329063, -0.329063, 0.0], [0.0, -0.0, 0.0], [0.0, 0.0, 0.0]]" virial="2.367004416306541 1.2942239168605594 0.0 1.2942239168605594 2.367004416306541 0.0 0.0 0.0 -2.837658581685411" stress="-0.033617741827430866 -0.018381412896472594 -0.0 -0.018381412896472594 -0.033617741827430866 -0.0 -0.0 -0.0 0.04030227951257844" free_energy=-33.04395944 pbc="T T T"
Hf      -0.01453000       0.01453000       4.11596000      -0.32906300       0.32906300      -0.00000000
Hf      -2.05192000       2.05192000       4.11596000       0.32906300      -0.32906300       0.00000000
Ni       0.00155000       2.06800000       2.05798000       0.00000000      -0.00000000       0.00000000
Ti      -2.06490000       4.13445000       2.05798000       0.00000000       0.00000000       0.00000000
4
Lattice="0.0 3.924002756 0.0 -3.924002756 -0.0 -0.0 0.0 -0.0 3.924002756" Properties=species:S:1:pos:R:3:forces:R:3 config_type=NiTi3 energy=-29.25997564 force="_JSON [[0.0, -0.0, -0.0], [0.0, 0.0, 0.0], [-0.0, -0.0, 0.0], [-0.0, 0.0, -0.0]]" virial="-0.8126490460480852 0.0 -0.0 0.0 -0.8126490460480852 -0.0 -0.0 -0.0 -0.8126490460480852" stress="0.013449778083292825 -0.0 0.0 -0.0 0.013449778083292825 0.0 0.0 0.0 0.013449778083292825" free_energy=-29.25998103 pbc="T T T"
Ni       0.00000000       0.00000000       0.00000000       0.00000000      -0.00000000      -0.00000000
Ti       0.00000000       1.96200000       1.96200000       0.00000000       0.00000000       0.00000000
Ti      -1.96200000      -0.00000000       1.96200000      -0.00000000      -0.00000000       0.00000000
Ti      -1.96200000       1.96200000       0.00000000      -0.00000000       0.00000000      -0.00000000
4
Lattice="-0.0 3.741744798 0.0 -3.741744798 0.0 -0.0 -0.0 0.0 3.741744798" Properties=species:S:1:pos:R:3:forces:R:3 config_type=HfNi3 energy=-28.37716811 force="_JSON [[-0.0, 0.0, -0.0], [0.0, -0.0, 0.0], [0.0, 0.0, -0.0], [-0.0, 0.0, -0.0]]" virial="-3.7252012536419996 -0.0 0.0 -0.0 -3.7252012536419996 0.0 0.0 0.0 -3.7252012536419996" stress="0.07110943857307846 0.0 -0.0 0.0 0.07110943857307846 -0.0 -0.0 -0.0 0.07110943857307846" free_energy=-28.37717267 pbc="T T T"
Hf       0.00000000       0.00000000       0.00000000      -0.00000000       0.00000000      -0.00000000
Ni      -0.00000000       1.87087000       1.87087000       0.00000000      -0.00000000       0.00000000
Ni      -1.87087000       0.00000000       1.87087000       0.00000000       0.00000000      -0.00000000
Ni      -1.87087000       1.87087000      -0.00000000      -0.00000000       0.00000000      -0.00000000
4
Lattice="1.672158335 1.672371326 -1.672371326 0.0 6.668296033 6.668296033 1.672158335 -1.672371326 1.672371326" Properties=species:S:1:pos:R:3:forces:R:3 config_type=Hf3Ni energy=-34.37040804 force="_JSON [[0.0, -1.434722, -1.434722], [-0.0, -0.0, 0.0], [0.0, 1.434722, 1.434722], [-0.0, -0.0, 0.0]]" virial="2.0807905898150705 -0.0 0.0 -0.0 0.5644644956452851 -2.4765067637224027 0.0 -2.4765067637224027 0.5644644956452851" stress="-0.027896094238151554 0.0 -0.0 0.0 -0.007567486532131526 0.03320125840647893 -0.0 0.03320125840647893 -0.007567486532131526" free_energy=-34.37041332 pbc="T T T"
Hf       0.00000000       6.64917000       6.64917000       0.00000000      -1.43472200      -1.43472200
Hf       1.67216000       1.66707000       1.66707000      -0.00000000      -0.00000000       0.00000000
Hf       0.00000000       3.35327000       3.35327000       0.00000000       1.43472200       1.43472200
Ni       1.67216000       5.00122000       5.00122000      -0.00000000      -0.00000000       0.00000000
4
Lattice="0.0 3.192528603 0.0 -6.38338174 0.0 0.0 -0.0 0.0 3.192528603" Properties=species:S:1:pos:R:3:forces:R:3 config_type=Hf2Ni2 energy=-30.84342102 force="_JSON [[4.323018, -0.0, -0.0], [-4.323018, 0.0, 0.0], [-0.042383, 0.0, 0.0], [0.042383, -0.0, -0.0]]" virial="-1.9851323206519822 -0.0 0.0 -0.0 0.2799850503728272 0.0 0.0 0.0 0.2799850503728272" stress="0.030511885746772723 0.0 -0.0 0.0 -0.004303426919659618 -0.0 -0.0 -0.0 -0.004303426919659618" free_energy=-30.84342154 pbc="T T T"
Hf      -6.36815000       0.00000000       0.00000000       4.32301800      -0.00000000      -0.00000000
Hf      -1.61108000       1.59626000       1.59626000      -4.32301800       0.00000000       0.00000000
Ni      -3.19291000       0.00000000       0.00000000      -0.04238300       0.00000000       0.00000000
Ni      -4.78632000       1.59626000       1.59626000       0.04238300      -0.00000000      -0.00000000
4
Lattice="2.047526396 2.047526396 -0.0 -2.047526396 2.047526396 0.0 0.0 0.0 8.182255292" Properties=species:S:1:pos:R:3:forces:R:3 config_type=HfNiTi2 energy=-30.90400934 force="_JSON [[0.0, -0.0, -0.0], [0.0, -0.0, 0.0], [0.0, 0.0, 1.926362], [-0.0, -0.0, -1.926362]]" virial="-0.7207870594365632 0.0 0.0 0.0 -0.7207870594365632 0.0 0.0 0.0 -3.789234123624956" stress="0.010506182515380269 -0.0 -0.0 -0.0 0.010506182515380269 -0.0 -0.0 -0.0 0.0552318257869813" free_energy=-30.90400635 pbc="T T T"
Hf       0.00000000       0.00000000       8.18226000       0.00000000      -0.00000000      -0.00000000
Ni       0.00000000       0.00000000       4.09113000       0.00000000      -0.00000000       0.00000000
Ti       0.00000000       2.04753000       2.07125000       0.00000000       0.00000000       1.92636200
Ti       0.00000000       2.04753000       6.11101000      -0.00000000      -0.00000000      -1.92636200
2
Lattice="1.576437744 1.578755712 -1.578755712 0.0 3.132109764 3.132109764 1.576437744 -1.578755712 1.578755712" Properties=species:S:1:pos:R:3:forces:R:3 config_type=HfNi energy=-15.33306052 force="_JSON [[0.0, -0.0, 0.0], [-0.0, 0.0, -0.0]]" virial="2.065692545892324 -0.0 0.0 -0.0 -0.20526100754136223 -2.606518473595793 0.0 -2.606518473595793 -0.20526100754136223" stress="-0.06624863864696834 0.0 -0.0 0.0 0.0065829071920508195 0.08359341801725036 -0.0 0.08359341801725036 0.0065829071920508195" free_energy=-15.33305857 pbc="T T T"
Hf       0.00000000       0.00000000       0.00000000       0.00000000      -0.00000000       0.00000000
Ni       1.57644000       1.56605000       1.56605000      -0.00000000       0.00000000      -0.00000000
4
Lattice="1.861901407 1.861901407 -0.0 -3.712251591 3.712251591 0.0 -0.0 0.0 3.709476026" Properties=species:S:1:pos:R:3:forces:R:3 config_type=HfNi3 energy=-27.08770837 force="_JSON [[0.0, 0.0, 0.0], [-0.768489, 0.768489, 0.0], [-0.0, 0.0, 0.0], [0.768489, -0.768489, -0.0]]" virial="-0.0157730100736302 2.62828494233447 0.0 2.62828494233447 -0.0157730100736302 -0.0 0.0 -0.0 -2.67827164105428" stress="0.00030759405274177873 -0.051254948383278764 -0.0 -0.051254948383278764 0.00030759405274177873 0.0 -0.0 0.0 0.05222975352006835" free_energy=-27.08770979 pbc="T T T"
Hf      -3.71225000       3.71225000       3.70948000       0.00000000       0.00000000       0.00000000
Ni      -0.01039000       1.87229000       1.85474000      -0.76848900       0.76848900       0.00000000
Ni      -1.85613000       1.85613000       3.70948000      -0.00000000       0.00000000       0.00000000
Ni      -1.83996000       3.70186000       1.85474000       0.76848900      -0.76848900      -0.00000000
4
Lattice="2.123496738 2.123496738 0.0 -2.106564762 2.106564762 4.205812461 2.106564762 -2.106564762 4.205812461" Properties=species:S:1:pos:R:3:forces:R:3 config_type=Hf3Ni energy=-34.70859493 force="_JSON [[-0.0, -0.0, 0.0], [0.0, -0.0, 0.0], [0.0, 0.0, 0.0], [0.0, 0.0, -0.0]]" virial="1.5586768754249212 0.06393964069579333 0.0 0.06393964069579333 1.5586768754249212 -0.0 0.0 -0.0 -0.4611472852753333" stress="-0.020711892539931387 -0.0008496379127791102 -0.0 -0.0008496379127791102 -0.020711892539931387 0.0 -0.0 0.0 0.00612778258810054" free_energy=-34.70859488 pbc="T T T"
Hf       0.00000000      -0.00000000       0.00000000      -0.00000000      -0.00000000       0.00000000
Hf       0.00847000       2.11503000       2.10291000       0.00000000      -0.00000000       0.00000000
Hf       2.11503000       0.00847000       2.10291000       0.00000000       0.00000000       0.00000000
Ni       0.00000000      -0.00000000       4.20581000       0.00000000       0.00000000      -0.00000000
2
Lattice="1.985723873 1.985723873 0.0 -1.985723873 1.985723873 0.0 -0.0 0.0 3.939111799" Properties=species:S:1:pos:R:3:forces:R:3 config_type=HfNi energy=-15.85704847 force="_JSON [[-0.0, -0.0, -0.0], [0.0, 0.0, 0.0]]" virial="1.3726556017409839 0.0 -0.0 0.0 1.3726556017409839 0.0 -0.0 0.0 -1.8488663531593434" stress="-0.044187107139692455 -0.0 0.0 -0.0 -0.044187107139692455 -0.0 0.0 -0.0 0.059516790322646555" free_energy=-15.85704767 pbc="T T T"
Hf      -0.00000000       0.00000000       3.93911000      -0.00000000      -0.00000000      -0.00000000
Ni      -0.00000000       1.98572000       1.96956000       0.00000000       0.00000000       0.00000000
4
Lattice="1.941295644 1.941295644 -0.0 -1.941295644 1.941295644 0.0 -0.0 0.0 7.730480123" Properties=species:S:1:pos:R:3:forces:R:3 config_type=HfNi2Ti energy=-29.60492526 force="_JSON [[0.0, -0.0, -0.0], [-0.0, 0.0, 0.625441], [0.0, -0.0, -0.625441], [0.0, -0.0, 0.0]]" virial="0.5276006301614523 0.0 -0.0 0.0 0.5276006301614523 -0.0 -0.0 -0.0 -4.155662359018199" stress="-0.00905493802097552 -0.0 0.0 -0.0 -0.00905493802097552 0.0 0.0 0.0 0.07132149384563033" free_energy=-29.60492471 pbc="T T T"
Hf       0.00000000       0.00000000       0.00000000       0.00000000      -0.00000000      -0.00000000
Ni      -0.00000000       1.94130000       1.94211000      -0.00000000       0.00000000       0.62544100
Ni      -0.00000000       1.94130000       5.78837000       0.00000000      -0.00000000      -0.62544100
Ti      -0.00000000       0.00000000       3.86524000       0.00000000      -0.00000000       0.00000000
3
Lattice="1.664330529 1.664330529 -1.664330529 -3.316245521 3.316245521 0.0 0.0 3.316245521 3.316245521" Properties=species:S:1:pos:R:3:forces:R:3 config_type=Hf2Ni energy=-24.80828634 force="_JSON [[0.594296, 0.594296, -0.594296], [-0.594296, -0.594296, 0.594296], [-0.0, -0.0, 0.0]]" virial="-1.7832647255446128 1.0792449952361884 -1.0792449952361884 1.0792449952361884 -1.7832647255446128 -1.0792449952361884 -1.0792449952361884 -1.0792449952361884 -1.7832647255446128" stress="0.03247593263096003 -0.019654674516643652 0.019654674516643652 -0.019654674516643652 0.03247593263096003 0.019654674516643652 0.019654674516643652 0.019654674516643652 0.03247593263096003" free_energy=-24.80828961 pbc="T T T"
Hf       0.01593000       0.01593000      -0.01593000       0.59429600       0.59429600      -0.59429600
Hf      -0.01179000       3.30446000       0.01179000      -0.59429600      -0.59429600       0.59429600
Ni      -1.65605000       4.97644000       1.65605000      -0.00000000      -0.00000000       0.00000000
4
Lattice="-0.0 3.246894127 -0.0 -6.500206809 0.0 0.0 -0.0 -0.0 3.246894127" Properties=species:S:1:pos:R:3:forces:R:3 config_type=HfNiTi2 energy=-31.13548101 force="_JSON [[0.0, -0.0, -0.0], [0.0, -0.0, -0.0], [-1.851489, 0.0, 0.0], [1.851489, -0.0, -0.0]]" virial="-1.7315389761176965 0.0 0.0 0.0 -3.93645380623385 0.0 0.0 0.0 -3.93645380623385" stress="0.02526788212636987 -0.0 -0.0 -0.0 0.057443610651393175 -0.0 -0.0 -0.0 0.057443610651393175" free_energy=-31.1354796 pbc="T T T"
Hf       0.00000000       0.00000000       0.00000000       0.00000000      -0.00000000      -0.00000000
Ni      -3.25010000       0.00000000       0.00000000       0.00000000      -0.00000000      -0.00000000
Ti      -1.65040000       1.62345000       1.62345000      -1.85148900       0.00000000       0.00000000
Ti      -4.84981000       1.62345000       1.62345000       1.85148900      -0.00000000      -0.00000000
1
Lattice="1.739934378 0.0 1.739934378 1.739934378 1.739934378 0.0 -1.739934378 1.739934378 -0.0" Properties=species:S:1:pos:R:3:forces:R:3 config_type=Ni energy=-5.39993032 force="_JSON [[0.0, 0.0, 0.0]]" virial="-0.7118303933840578 -0.0 0.0 -0.0 -0.7118303933840578 -0.0 0.0 -0.0 -0.7118303933840578" stress="0.06756906735160369 0.0 -0.0 0.0 0.06756906735160369 0.0 -0.0 0.0 0.06756906735160369" free_energy=-5.39993133 pbc="T T T"
Ni       0.00000000       0.00000000       0.00000000       0.00000000       0.00000000       0.00000000
4
Lattice="1.868023124 1.868023124 0.0 -1.846232161 1.846232161 3.697641196 1.846232161 -1.846232161 3.697641196" Properties=species:S:1:pos:R:3:forces:R:3 config_type=HfNi3 energy=-26.80577164 force="_JSON [[-0.0, -0.0, 0.0], [0.0, 0.0, -0.0], [-0.0, -0.0, -0.0], [-0.0, -0.0, 0.0]]" virial="1.5120569272824183 2.993715768444523 0.0 2.993715768444523 1.5120569272824183 0.0 0.0 0.0 -1.466205095773702" stress="-0.029642499699119317 -0.058689072589917554 -0.0 -0.058689072589917554 -0.029642499699119317 -0.0 -0.0 -0.0 0.028743616279336984" free_energy=-26.80577532 pbc="T T T"
Hf       0.00000000      -0.00000000       7.39528000      -0.00000000      -0.00000000       0.00000000
Ni       1.85713000       0.01090000       5.54646000       0.00000000       0.00000000      -0.00000000
Ni       0.01090000       1.85713000       5.54646000      -0.00000000      -0.00000000      -0.00000000
Ni      -0.00000000       0.00000000       3.69764000      -0.00000000      -0.00000000       0.00000000
4
Lattice="1.886325183 1.886325183 0.0 -1.886325183 1.886325183 0.0 -0.0 0.0 7.521228508" Properties=species:S:1:pos:R:3:forces:R:3 config_type=HfNi3 energy=-26.05623511 force="_JSON [[0.0, -0.0, -0.0], [-0.0, 0.0, 1.249253], [0.0, 0.0, -0.0], [0.0, -0.0, -1.249253]]" virial="-2.545693189676639 0.0 0.0 0.0 -2.545693189676639 -0.0 0.0 -0.0 -6.710530148896947" stress="0.04756134811276357 -0.0 -0.0 -0.0 0.04756134811276357 0.0 -0.0 0.0 0.12537326246821742" free_energy=-26.05623219 pbc="T T T"
Hf      -0.00000000       0.00000000       0.00000000       0.00000000      -0.00000000      -0.00000000
Ni      -0.00000000       1.88633000       1.89686000      -0.00000000       0.00000000       1.24925300
Ni      -0.00000000       0.00000000       3.76061000       0.00000000       0.00000000      -0.00000000
Ni      -0.00000000       1.88633000       5.62437000       0.00000000      -0.00000000      -1.24925300
3
Lattice="1.517199811 1.517199811 -1.517199811 -3.001163622 3.001163622 -0.0 0.0 3.001163622 3.001163622" Properties=species:S:1:pos:R:3:forces:R:3 config_type=HfNi2 energy=-21.51276156 force="_JSON [[0.0, 0.0, 0.0], [-0.115203, -0.115203, 0.115203], [0.115203, 0.115203, -0.115203]]" virial="-0.5533835687136184 1.2724954967131614 -1.2724954967131614 1.2724954967131614 -0.5533835687136184 -1.2724954967131614 -1.2724954967131614 -1.2724954967131614 -0.5533835687136184" stress="0.013498418163910834 -0.03103936816601937 0.03103936816601937 -0.03103936816601937 0.013498418163910834 0.03103936816601937 0.03103936816601937 0.03103936816601937 0.013498418163910834" free_energy=-21.51276248 pbc="T T T"
Hf       0.00000000       0.00000000       0.00000000       0.00000000       0.00000000       0.00000000
Ni       0.00724000       3.00840000      -0.00724000      -0.11520300      -0.11520300       0.11520300
Ni      -1.49120000       4.51113000       1.49120000       0.11520300       0.11520300      -0.11520300
3
Lattice="1.643419642 1.643419642 -1.643419642 -3.272111755 3.272111755 -0.0 0.0 3.272111755 3.272111755" Properties=species:S:1:pos:R:3:forces:R:3 config_type=Hf2Ni energy=-24.80023071 force="_JSON [[0.552524, 0.552524, -0.552524], [-0.552524, -0.552524, 0.552524], [-0.0, -0.0, -0.0]]" virial="0.6729799271917287 1.0940762492512113 -1.0940762492512113 1.0940762492512113 0.6729799271917287 -1.0940762492512113 -1.0940762492512113 -1.0940762492512113 0.6729799271917287" stress="-0.012749000163166031 -0.0207262917014848 0.0207262917014848 -0.0207262917014848 -0.012749000163166031 0.0207262917014848 0.0207262917014848 0.0207262917014848 -0.012749000163166031" free_energy=-24.80022802 pbc="T T T"
Hf       0.01399000       0.01399000      -0.01399000       0.55252400       0.55252400      -0.55252400
Hf      -0.00908000       3.26303000       0.00908000      -0.55252400      -0.55252400       0.55252400
Ni      -1.63360000       4.91062000       1.63360000      -0.00000000      -0.00000000      -0.00000000
1