4
Lattice="1.614082366 1.539436686 -1.539436686 0.0 5.436263965 5.436263965 1.614082366 -1.539436686 1.539436686" Properties=species:S:1:pos:R:3:forces:R:3 config_type=HfNi3 energy=-25.82938222 force="_JSON [[-0.0, 0.0, 0.0], [0.0, 0.175071, 0.175071], [-0.0, -0.0, 0.0], [-0.0, -0.175071, -0.175071]]" virial="0.4790495416487977 0.0 0.0 0.0 -3.981339578949389 0.27464061423785757 0.0 0.27464061423785757 -3.981339578949389" stress="-0.008866094920862799 -0.0 -0.0 -0.0 0.07368535307989435 -0.0050829602019368085 -0.0 -0.0050829602019368085 0.07368535307989435" free_energy=-25.82938564 pbc="T T T"
Hf       0.00000000       0.00000000       0.00000000      -0.00000000       0.00000000       0.00000000
Ni       1.61408000       1.43181000       1.43181000       0.00000000       0.17507100       0.17507100
Ni       0.00000000       2.71813000       2.71813000      -0.00000000      -0.00000000       0.00000000
Ni       1.61408000       4.00445000       4.00445000      -0.00000000      -0.17507100      -0.17507100
4
Lattice="1.610002772 1.508509064 -1.508509064 -4.356751824 1.453310527 -1.453310527 0.0 2.868471574 2.868471574" Properties=species:S:1:pos:R:3:forces:R:3 config_type=HfNi3 energy=-26.83254525 force="_JSON [[-0.0, -0.0, -0.0], [-0.281914, -0.058835, 0.058835], [-0.0, -0.0, -0.0], [0.281914, 0.058835, -0.058835]]" virial="0.5030356858319516 -0.029169328158610508 0.029169328158610508 -0.029169328158610508 -0.8210128593933315 -0.53691610604703 0.029169328158610508 -0.53691610604703 -0.8210128593933315" stress="-0.009838784186058698 0.000570517624669611 -0.000570517624669611 0.000570517624669611 0.01605804233190818 0.010501445209953721 -0.000570517624669611 0.010501445209953721 0.01605804233190818" free_energy=-26.83254586 pbc="T T T"
Hf       0.00000000       0.00000000       0.00000000      -0.00000000      -0.00000000      -0.00000000
Ni       0.00164000       2.91677000      -0.04830000      -0.28191400      -0.05883500       0.05883500
Ni      -1.37337000       1.48091000      -1.48091000      -0.00000000      -0.00000000      -0.00000000
Ni      -2.74838000       2.91352000      -0.04505000       0.28191400       0.05883500      -0.05883500
4
Lattice="1.718228591 1.339370575 -1.339370575 -4.627770836 1.495886252 -1.495886252 -0.0 2.655898522 2.655898522" Properties=species:S:1:pos:R:3:forces:R:3 config_type=Ni3Ti energy=-25.10989426 force="_JSON [[0.01326, 0.272239, -0.272239], [0.0, -0.0, -0.0], [-0.01326, -0.272239, 0.272239], [0.0, -0.0, -0.0]]" virial="0.04689734944799383 -0.38864361417050364 0.38864361417050364 -0.38864361417050364 -1.9503660501993274 0.6158352827652462 0.38864361417050364 0.6158352827652462 -1.9503660501993274" stress="-0.0010068802521874872 0.008344129995683432 -0.008344129995683432 0.008344129995683432 0.04187411620480438 -0.013221906826615955 -0.008344129995683432 -0.013221906826615955 0.04187411620480438" free_energy=-25.1098963 pbc="T T T"
Ni       1.61451000       1.29841000      -1.29841000       0.01326000       0.27223900      -0.27223900
Ni       0.13173000       2.70645000      -0.05055000       0.00000000      -0.00000000      -0.00000000
Ni      -1.35105000       1.45859000      -1.45859000      -0.01326000      -0.27223900       0.27223900
Ti      -3.04127000       2.78471000      -0.12881000       0.00000000      -0.00000000      -0.00000000
4
Lattice="1.613267412 1.616427949 -1.616427949 -0.0 6.118751248 6.118751248 1.613267412 -1.616427949 1.616427949" Properties=species:S:1:pos:R:3:forces:R:3 config_type=Hf2Ni2 energy=-30.24766069 force="_JSON [[0.0, -0.264752, -0.264752], [-0.0, 0.264752, 0.264752], [-0.0, 0.323804, 0.323804], [0.0, -0.323804, -0.323804]]" virial="1.8859483073880041 -0.0 -0.0 -0.0 -0.5592699609817069 -2.1106405582802945 -0.0 -2.1106405582802945 -0.5592699609817069" stress="-0.029549101756559597 0.0 0.0 0.0 0.008762660631628661 0.033069587529959296 0.0 0.033069587529959296 0.008762660631628661" free_energy=-30.24765854 pbc="T T T"
Hf      -0.00000000       5.97040000       5.97040000       0.00000000      -0.26475200      -0.26475200
Hf       1.61327000       1.67804000       1.67804000      -0.00000000       0.26475200       0.26475200
Ni      -0.00000000       3.12197000       3.12197000      -0.00000000       0.32380400       0.32380400
Ni       1.61327000       4.52647000       4.52647000       0.00000000      -0.32380400      -0.32380400
3
Lattice="2.134775071 2.134775071 -0.0 -3.979985665 3.979985665 3.979985665 -0.0 -2.134775071 2.134775071" Properties=species:S:1:pos:R:3:forces:R:3 config_type=Hf2Ni energy=-25.34450829 force="_JSON [[-0.056834, 0.056834, 0.056834], [0.056834, -0.056834, -0.056834], [-0.0, -0.0, 0.0]]" virial="2.313931490147008 1.506764655277063 1.506764655277063 1.506764655277063 2.313931490147008 -1.506764655277063 1.506764655277063 -1.506764655277063 2.313931490147008" stress="-0.04252491836136023 -0.027690985765256772 -0.027690985765256772 -0.027690985765256772 -0.04252491836136023 0.027690985765256772 -0.027690985765256772 0.027690985765256772 -0.04252491836136023" free_energy=-25.34450508 pbc="T T T"
Hf      -3.87229000       3.87229000       3.87229000      -0.05683400       0.05683400       0.05683400
Hf      -0.01117000       2.14595000       2.14595000       0.05683400      -0.05683400      -0.05683400
Ni      -1.94173000       1.94173000       4.07651000      -0.00000000      -0.00000000       0.00000000
4
Lattice="2.002793186 2.002793186 0.0 -2.002793186 2.002793186 0.0 -0.0 0.0 7.351199674" Properties=species:S:1:pos:R:3:forces:R:3 config_type=NiTi3 energy=-29.56676996 force="_JSON [[0.0, -0.0, 0.0], [-0.0, 0.0, 0.821053], [0.0, -0.0, 0.0], [0.0, -0.0, -0.821053]]" virial="2.2631798677442823 0.0 -0.0 0.0 2.2631798677442823 0.0 -0.0 0.0 0.6776647737335212" stress="-0.03837590637747496 -0.0 0.0 -0.0 -0.03837590637747496 -0.0 0.0 -0.0 -0.011490911651679994" free_energy=-29.5667782 pbc="T T T"
Ni       0.00000000       0.00000000       0.00000000       0.00000000      -0.00000000       0.00000000
Ti      -0.00000000       2.00279000       1.58207000      -0.00000000       0.00000000       0.82105300
Ti      -0.00000000       0.00000000       3.67560000       0.00000000      -0.00000000       0.00000000
Ti      -0.00000000       2.00279000       5.76913000       0.00000000      -0.00000000      -0.82105300
4
Lattice="1.897591545 1.897591545 -0.0 -1.897591545 1.897591545 -0.0 0.0 -0.0 7.271895805" Properties=species:S:1:pos:R:3:forces:R:3 config_type=Ni2Ti2 energy=-27.04683469 force="_JSON [[-0.0, 0.0, -0.112741], [0.0, -0.0, 0.112741], [-0.0, 0.0, -0.093992], [0.0, -0.0, 0.093992]]" virial="2.3426702416818452 -0.0 0.0 -0.0 2.3426702416818452 -0.0 0.0 -0.0 -0.7202760697305642" stress="-0.04473300201086045 0.0 -0.0 0.0 -0.04473300201086045 0.0 -0.0 0.0 0.013753583539995194" free_energy=-27.04683122 pbc="T T T"
Ni       0.00000000      -0.00000000       0.10502000      -0.00000000       0.00000000      -0.11274100
Ni       0.00000000       1.89759000       1.71296000       0.00000000      -0.00000000       0.11274100
Ti       0.00000000      -0.00000000       3.45286000      -0.00000000       0.00000000      -0.09399200
Ti       0.00000000       1.89759000       5.63701000       0.00000000      -0.00000000       0.09399200
3
Lattice="1.685604805 1.685604805 -1.685604805 -3.24710322 3.24710322 0.0 -0.0 3.24710322 3.24710322" Properties=species:S:1:pos:R:3:forces:R:3 config_type=Hf2Ni energy=-25.09659141 force="_JSON [[-0.139117, -0.139117, 0.139117], [0.139117, 0.139117, -0.139117], [0.0, 0.0, -0.0]]" virial="1.1898589310835757 1.5108124441330837 -1.5108124441330837 1.5108124441330837 1.1898589310835757 -1.5108124441330837 -1.5108124441330837 -1.5108124441330837 1.1898589310835757" stress="-0.022316509638086464 -0.02833618304661758 0.02833618304661758 -0.02833618304661758 -0.022316509638086464 0.02833618304661758 0.02833618304661758 0.02833618304661758 -0.022316509638086464" free_energy=-25.0965927 pbc="T T T"
Hf       0.11436000       0.11436000      -0.11436000      -0.13911700      -0.13911700       0.13911700
Hf      -0.07299000       3.17411000       0.07299000       0.13911700       0.13911700      -0.13911700
Ni      -1.60287000       4.89134000       1.60287000       0.00000000       0.00000000      -0.00000000
4
Lattice="0.0 3.157670135 -0.0 -6.283734249 -0.0 -0.0 0.0 -0.0 3.157670135" Properties=species:S:1:pos:R:3:forces:R:3 config_type=Hf2Ni2 energy=-31.8229851 force="_JSON [[0.442689, 0.0, 0.0], [-0.442689, -0.0, -0.0], [-0.569441, -0.0, -0.0], [0.569441, 0.0, 0.0]]" virial="-2.261145399863649 0.0 0.0 0.0 0.9514744902402417 0.0 0.0 0.0 0.9514744902402417" stress="0.03608919219600686 -0.0 -0.0 -0.0 -0.015186084782494913 -0.0 -0.0 -0.0 -0.015186084782494913" free_energy=-31.82298453 pbc="T T T"
Hf      -6.05356000      -0.00000000      -0.00000000       0.44268900       0.00000000       0.00000000
Hf      -1.80111000       1.57884000       1.57884000      -0.44268900      -0.00000000      -0.00000000
Ni      -3.15257000      -0.00000000      -0.00000000      -0.56944100      -0.00000000      -0.00000000
Ni      -4.70210000       1.57884000       1.57884000       0.56944100       0.00000000       0.00000000
4
Lattice="2.132504823 2.132504823 0.0 -2.132504823 2.132504823 0.0 -0.0 0.0 7.682894926" Properties=species:S:1:pos:R:3:forces:R:3 config_type=Hf2NiTi energy=-33.85720968 force="_JSON [[0.0, -0.0, -0.411113], [-0.0, 0.0, 0.411113], [-0.0, -0.0, 0.0], [-0.0, 0.0, -0.0]]" virial="0.6795754939177513 0.0 0.0 0.0 0.6795754939177513 0.0 0.0 0.0 -1.4984065595237117" stress="-0.009725294825622762 -0.0 -0.0 -0.0 -0.009725294825622762 -0.0 -0.0 -0.0 0.02144345358306704" free_energy=-33.85721129 pbc="T T T"
Hf      -0.00000000       0.00000000       0.22985000       0.00000000      -0.00000000      -0.41111300
Hf      -0.00000000       0.00000000       3.61160000      -0.00000000       0.00000000       0.41111300
Ni      -0.00000000       2.13250000       1.92072000      -0.00000000      -0.00000000       0.00000000
Ti      -0.00000000       2.13250000       5.76217000      -0.00000000       0.00000000      -0.00000000
4
Lattice="-0.0 2.907042268 0.0 -5.313173478 0.0 0.0 -0.0 0.0 2.907042268" Properties=species:S:1:pos:R:3:forces:R:3 config_type=Ni3Ti energy=-25.12547166 force="_JSON [[0.105254, -0.0, -0.0], [-0.0, -0.0, -0.0], [-0.105254, 0.0, 0.0], [-0.0, -0.0, -0.0]]" virial="-1.4360699396580558 -0.0 -0.0 -0.0 2.182775369960785 0.0 -0.0 0.0 2.182775369960785" stress="0.031982978240197774 0.0 0.0 0.0 -0.048612992468401894 -0.0 0.0 -0.0 -0.048612992468401894" free_energy=-25.12547383 pbc="T T T"
Ni      -0.02608000       0.00000000       0.00000000       0.10525400      -0.00000000      -0.00000000
Ni      -1.32829000       1.45352000       1.45352000      -0.00000000      -0.00000000      -0.00000000
Ni      -2.63051000       0.00000000       0.00000000      -0.10525400       0.00000000       0.00000000
Ti      -3.98488000       1.45352000       1.45352000      -0.00000000      -0.00000000      -0.00000000
4
Lattice="-0.0 3.043876396 -0.0 -5.902439435 0.0 0.0 -0.0 -0.0 3.043876396" Properties=species:S:1:pos:R:3:forces:R:3 config_type=Ni2Ti2 energy=-27.76353816 force="_JSON [[-0.185971, 0.0, 0.0], [0.185971, -0.0, -0.0], [0.374474, -0.0, -0.0], [-0.374474, 0.0, 0.0]]" virial="-2.7718014477504314 0.0 0.0 0.0 -1.0291508956793523 0.0 0.0 0.0 -1.0291508956793523" stress="0.05068466169444682 -0.0 -0.0 -0.0 0.0188188677880875 -0.0 -0.0 -0.0 0.0188188677880875" free_energy=-27.7635332 pbc="T T T"
Ni      -5.87603000       0.00000000       0.00000000      -0.18597100       0.00000000       0.00000000
Ni      -1.50202000       1.52194000       1.52194000       0.18597100      -0.00000000      -0.00000000
Ti      -2.78834000       0.00000000       0.00000000       0.37447400      -0.00000000      -0.00000000
Ti      -4.58971000       1.52194000       1.52194000      -0.37447400       0.00000000       0.00000000
4
Lattice="1.814766017 1.680088423 -1.680088423 -4.989580106 1.657388109 -1.657388109 -0.0 3.103158701 3.103158701" Properties=species:S:1:pos:R:3:forces:R:3 config_type=Hf2NiTi energy=-32.99754709 force="_JSON [[-0.044008, 0.352326, -0.352326], [0.044008, -0.352326, 0.352326], [0.0, -0.0, 0.0], [0.0, 0.0, -0.0]]" virial="2.173355122618168 0.4122274705624672 -0.4122274705624672 0.4122274705624672 -0.5339804238567001 -0.22808944310391088 -0.4122274705624672 -0.22808944310391088 -0.5339804238567001" stress="-0.030742983863667674 -0.005831123659347308 0.005831123659347308 -0.005831123659347308 0.007553368238488779 0.0032264170709337073 0.005831123659347308 0.0032264170709337073 0.007553368238488779" free_energy=-32.99754858 pbc="T T T"
Hf       1.62234000       1.56023000      -1.56023000      -0.04400800       0.35232600      -0.35232600
Hf      -1.39498000       1.78860000      -1.78860000       0.04400800      -0.35232600       0.35232600
Ni       0.11368000       3.22599000      -0.12283000       0.00000000      -0.00000000       0.00000000
Ti      -3.28849000       3.21464000      -0.11148000       0.00000000       0.00000000      -0.00000000
4
Lattice="0.0 3.149462748 -0.0 -6.456396845 -0.0 -0.0 0.0 0.0 3.149462748" Properties=species:S:1:pos:R:3:forces:R:3 config_type=HfNiTi2 energy=-31.50255546 force="_JSON [[0.0, -0.0, -0.0], [0.0, -0.0, -0.0], [1.032182, 0.0, 0.0], [-1.032182, -0.0, -0.0]]" virial="3.580485124591279 -0.0 -0.0 -0.0 -1.0070209970293258 0.0 -0.0 0.0 -1.0070209970293258" stress="-0.055908611346028196 0.0 0.0 0.0 0.015724446152147974 -0.0 0.0 -0.0 0.015724446152147974" free_energy=-31.5025557 pbc="T T T"
Hf       0.00000000       0.00000000       0.00000000       0.00000000      -0.00000000      -0.00000000
Ni      -3.22820000      -0.00000000      -0.00000000       0.00000000      -0.00000000      -0.00000000
Ti      -1.91473000       1.57473000       1.57473000       1.03218200       0.00000000       0.00000000
Ti      -4.54167000       1.57473000       1.57473000      -1.03218200      -0.00000000      -0.00000000
4
Lattice="2.054391376 2.054391376 0.0 -4.003471998 4.003471998 0.0 0.0 0.0 3.969618643" Properties=species:S:1:pos:R:3:forces:R:3 config_type=HfNiTi2 energy=-30.90442617 force="_JSON [[-0.0, 0.0, -0.0], [0.0, 0.0, -0.0], [0.242512, -0.242512, -0.0], [-0.242512, 0.242512, 0.0]]" virial="0.9905722106811646 -0.032131387344679775 0.0 -0.032131387344679775 0.9905722106811646 0.0 0.0 0.0 -1.6578983201170925" stress="-0.01517006282856877 0.0004920743379755102 -0.0 0.0004920743379755102 -0.01517006282856877 -0.0 -0.0 -0.0 0.025389791282616626" free_energy=-30.90443078 pbc="T T T"
Hf      -4.00347000       4.00347000       3.96962000      -0.00000000       0.00000000      -0.00000000
Ni      -2.00174000       2.00174000       0.00000000       0.00000000       0.00000000      -0.00000000
Ti      -0.09409000       2.14848000       1.98481000       0.24251200      -0.24251200      -0.00000000
Ti      -1.85499000       3.90938000       1.98481000      -0.24251200       0.24251200       0.00000000
4
Lattice="2.136937214 2.136937214 -0.0 -2.136937214 2.136937214 0.0 -0.0 0.0 7.699445662" Properties=species:S:1:pos:R:3:forces:R:3 config_type=Hf2NiTi energy=-33.7940291 force="_JSON [[0.0, -0.0, -0.942141], [-0.0, 0.0, 0.942141], [-0.0, -0.0, -0.0], [-0.0, 0.0, -0.0]]" virial="1.6262480363627958 -0.0 0.0 -0.0 1.6262480363627958 0.0 0.0 0.0 -0.31803177094828144" stress="-0.023126707454699115 0.0 -0.0 0.0 -0.023126707454699115 -0.0 -0.0 -0.0 0.004522697376761023" free_energy=-33.7940323 pbc="T T T"
Hf      -0.00000000       0.00000000       0.28303000       0.00000000      -0.00000000      -0.94214100
Hf      -0.00000000       0.00000000       3.56669000      -0.00000000       0.00000000       0.94214100
Ni      -0.00000000       2.13694000       1.92486000      -0.00000000      -0.00000000      -0.00000000
Ti      -0.00000000       2.13694000       5.77458000      -0.00000000       0.00000000      -0.00000000
3
Lattice="1.978545329 1.978545329 0.0 -3.649207148 3.649207148 3.649207148 -0.0 -1.978545329 1.978545329" Properties=species:S:1:pos:R:3:forces:R:3 config_type=HfNi2 energy=-20.44688478 force="_JSON [[0.0, -0.0, -0.0], [0.329705, -0.329705, -0.329705], [-0.329705, 0.329705, 0.329705]]" virial="-0.5896709333213003 0.47133664079039705 0.47133664079039705 0.47133664079039705 -0.5896709333213003 -0.47133664079039705 0.47133664079039705 -0.47133664079039705 -0.5896709333213003" stress="0.013759350694427512 -0.010998144506191512 -0.010998144506191512 -0.010998144506191512 0.013759350694427512 0.010998144506191512 -0.010998144506191512 0.010998144506191512 0.013759350694427512" free_energy=-20.44688435 pbc="T T T"
Hf       0.00000000       0.00000000       0.00000000       0.00000000      -0.00000000      -0.00000000
Ni       0.03408000       1.94446000       1.94446000       0.32970500      -0.32970500      -0.32970500
Ni      -1.70474000       1.70474000       3.68329000      -0.32970500       0.32970500       0.32970500
4
Lattice="1.810934666 1.36358941 -1.36358941 -0.0 5.180074552 5.180074552 1.810934666 -1.36358941 1.36358941" Properties=species:S:1:pos:R:3:forces:R:3 config_type=Ni2Ti2 energy=-26.92727167 force="_JSON [[-0.0, 0.185172, 0.185172], [0.0, -0.185172, -0.185172], [-0.0, 0.068108, 0.068108], [0.0, -0.068108, -0.068108]]" virial="3.915342061915287 -0.0 -0.0 -0.0 2.881884601244694 -1.2307969977360083 -0.0 -1.2307969977360083 2.881884601244694" stress="-0.07652217515119043 0.0 0.0 0.0 -0.05632408988401087 0.024054925967373096 0.0 0.024054925967373096 -0.05632408988401087" free_energy=-26.92727566 pbc="T T T"
Ni       0.00000000       0.06145000       0.06145000      -0.00000000       0.18517200       0.18517200
Ni       1.81093000       1.23357000       1.23357000       0.00000000      -0.18517200      -0.18517200
Ti       0.00000000       2.45128000       2.45128000      -0.00000000       0.06810800       0.06810800
Ti       1.81093000       4.02382000       4.02382000       0.00000000      -0.06810800      -0.06810800
3
Lattice="1.996306346 1.996306346 -0.0 -3.662978456 3.662978456 3.662978456 0.0 -1.996306346 1.996306346" Properties=species:S:1:pos:R:3:forces:R:3 config_type=NiTi2 energy=-21.36133436 force="_JSON [[-0.0, -0.0, 0.0], [0.121136, -0.121136, -0.121136], [-0.121136, 0.121136, 0.121136]]" virial="0.26606176533310344 0.3561869591959343 0.3561869591959343 0.3561869591959343 0.26606176533310344 -0.3561869591959343 0.3561869591959343 -0.3561869591959343 0.26606176533310344" stress="-0.006075366394461372 -0.008133323024956726 -0.008133323024956726 -0.008133323024956726 -0.006075366394461372 0.008133323024956726 -0.008133323024956726 0.008133323024956726 -0.006075366394461372" free_energy=-21.36133465 pbc="T T T"
Ni       0.00000000       0.00000000       0.00000000      -0.00000000      -0.00000000       0.00000000
Ti       0.15002000       1.84628000       1.84628000       0.12113600      -0.12113600      -0.12113600
Ti      -1.81669000       1.81669000       3.81300000      -0.12113600       0.12113600       0.12113600
4
Lattice="1.533435655 1.503236602 -1.503236602 -4.371709153 1.460882693 -1.460882693 0.0 2.982245658 2.982245658" Properties=species:S:1:pos:R:3:forces:R:3 config_type=Ni2Ti2 energy=-27.52097698 force="_JSON [[0.262491, -0.542704, 0.542704], [-0.262491, 0.542704, -0.542704], [0.335686, -0.157602, 0.157602], [-0.335686, 0.157602, -0.157602]]" virial="-1.420327632608553 0.22838863346080923 -0.22838863346080923 0.22838863346080923 0.2185873430665597 -0.7614101508249566 -0.22838863346080923 -0.7614101508249566 0.2185873430665597" stress="0.027023799647245484 -0.004345426034567687 0.004345426034567687 -0.004345426034567687 -0.004158942224904547 0.014486935896249973 0.004345426034567687 0.014486935896249973 -0.004158942224904547" free_energy=-27.52097738 pbc="T T T"
Ni      -2.80354000       2.90983000      -2.90983000       0.26249100      -0.54270400       0.54270400
Ni       0.02241000       3.03806000      -0.05582000      -0.26249100       0.54270400      -0.54270400
Ti      -1.25906000       1.43672000      -1.43672000       0.33568600      -0.15760200       0.15760200
Ti      -3.05550000       3.00794000      -0.02569000      -0.33568600       0.15760200      -0.15760200
2
Lattice="1.668844432 1.49475826 -1.49475826 0.0 2.685148122 2.685148122 1.668844432 -1.49475826 1.49475826" Properties=species:S:1:pos:R:3:forces:R:3 config_type=NiTi energy=-13.80321193 force="_JSON [[-0.0, 0.0, -0.0], [0.0, -0.0, 0.0]]" virial="0.4374722798225561 0.0 -0.0 0.0 -1.1487925622025337 0.3708108469114502 -0.0 0.3708108469114502 -1.1487925622025337" stress="-0.01632809370725777 -0.0 0.0 -0.0 0.042877214102461585 -0.013840040924406927 0.0 -0.013840040924406927 0.042877214102461585" free_energy=-13.80321377 pbc="T T T"
Ni       0.00000000       0.00000000       0.00000000      -0.00000000       0.00000000      -0.00000000
Ti       1.66884000       1.34257000       1.34257000       0.00000000      -0.00000000       0.00000000
4
Lattice="-0.0 4.366762378 0.0 -2.640000712 0.0 2.640000712 2.640000712 0.0 2.640000712" Properties=species:S:1:pos:R:3:forces:R:3 config_type=HfNiTi2 energy=-31.02933052 force="_JSON [[0.0, 0.0, 0.0], [0.0, 0.0, 0.0], [-0.0, 0.0, 0.0], [-0.0, -0.0, -0.0]]" virial="3.992628043980935 -0.0 -0.0 -0.0 3.201849448409961 0.0 -0.0 0.0 3.992628043980935" stress="-0.06559356105666127 0.0 0.0 0.0 -0.05260212195451854 -0.0 0.0 -0.0 -0.06559356105666127" free_energy=-31.02933111 pbc="T T T"
Hf       0.00000000       0.00000000       0.00000000       0.00000000       0.00000000       0.00000000
Ni       0.00000000       0.00000000       2.64000000       0.00000000       0.00000000       0.00000000
Ti      -1.32000000       2.18338000       1.32000000      -0.00000000       0.00000000       0.00000000
Ti       1.32000000       2.18338000       1.32000000      -0.00000000      -0.00000000      -0.00000000
3
Lattice="1.984680504 1.984680504 -0.0 -3.652617112 3.652617112 3.652617112 0.0 -1.984680504 1.984680504" Properties=species:S:1:pos:R:3:forces:R:3 config_type=NiTi2 energy=-21.34141081 force="_JSON [[-0.0, 0.0, -0.0], [0.084739, -0.084739, -0.084739], [-0.084739, 0.084739, 0.084739]]" virial="0.5901541292352879 0.36346444292899427 0.36346444292899427 0.36346444292899427 0.5901541292352879 -0.36346444292899427 0.36346444292899427 -0.36346444292899427 0.5901541292352879" stress="-0.013672843377942768 -0.008420838142840538 -0.008420838142840538 -0.008420838142840538 -0.013672843377942768 0.008420838142840538 -0.008420838142840538 0.008420838142840538 -0.013672843377942768" free_energy=-21.34141099 pbc="T T T"
Ni       1.98468000       0.00000000       1.98468000      -0.00000000       0.00000000      -0.00000000
Ti       0.14789000       1.83679000       1.83679000       0.08473900      -0.08473900      -0.08473900
Ti      -1.81583000       1.81583000       3.80051000      -0.08473900       0.08473900       0.08473900
4
Lattice="1.832595261 1.320281761 -1.320281761 0.0 5.239191004 5.239191004 1.832595261 -1.320281761 1.320281761" Properties=species:S:1:pos:R:3:forces:R:3 config_type=Ni2Ti2 energy=-26.85398392 force="_JSON [[0.0, 0.201371, 0.201371], [-0.0, -0.201371, -0.201371], [-0.0, -0.034813, -0.034813], [0.0, 0.034813, 0.034813]]" virial="2.749487701795678 0.0 0.0 0.0 1.9182154753563925 -1.0316866954533626 0.0 -1.0316866954533626 1.9182154753563925" stress="-0.054224352591426855 -0.0 -0.0 -0.0 -0.037830317340254126 0.020346533320229558 -0.0 0.020346533320229558 -0.037830317340254126" free_energy=-26.85397983 pbc="T T T"
Ni       3.66519000       0.06459000       0.06459000       0.00000000       0.20137100       0.20137100
Ni       1.83260000       1.24521000       1.24521000      -0.00000000      -0.20137100      -0.20137100
Ti       3.66519000       2.48926000       2.48926000      -0.00000000      -0.03481300      -0.03481300
Ti       1.83260000       4.05973000       4.05973000       0.00000000       0.03481300       0.03481300
4
Lattice="2.019534533 2.019534533 0.0 -2.019534533 2.019534533 0.0 -0.0 0.0 7.818348368" Properties=species:S:1:pos:R:3:forces:R:3 config_type=Hf2Ni2 energy=-30.82831754 force="_JSON [[0.0, -0.0, -0.96103], [-0.0, 0.0, 0.96103], [-0.0, 0.0, 0.047607], [0.0, -0.0, -0.047607]]" virial="0.7667975729388012 0.0 -0.0 0.0 0.7667975729388012 0.0 -0.0 0.0 -4.649243199720292" stress="-0.012023562040482872 -0.0 0.0 -0.0 -0.012023562040482872 -0.0 0.0 -0.0 0.07290120108086401" free_energy=-30.82831618 pbc="T T T"
Hf      -0.00000000       0.00000000       7.59419000       0.00000000      -0.00000000      -0.96103000
Hf      -0.00000000       2.01953000       2.17875000      -0.00000000       0.00000000       0.96103000
Ni      -0.00000000       0.00000000       4.08583000      -0.00000000       0.00000000       0.04760700
Ni      -0.00000000       2.01953000       5.68710000       0.00000000      -0.00000000      -0.04760700
4
Lattice="1.988914722 1.988914722 -0.0 -1.988914722 1.988914722 0.0 -0.0 0.0 6.697306056" Properties=species:S:1:pos:R:3:forces:R:3 config_type=HfNi3 energy=-26.63038761 force="_JSON [[0.0, -0.0, 0.0], [-0.0, 0.0, 0.196852], [0.0, -0.0, 0.0], [0.0, -0.0, -0.196852]]" virial="-1.272186824328196 0.0 0.0 0.0 -1.272186824328196 -0.0 0.0 -0.0 -4.218302775556226" stress="0.024009793614883836 -0.0 -0.0 -0.0 0.024009793614883836 0.0 -0.0 0.0 0.07961140385153721" free_energy=-26.63038823 pbc="T T T"
Hf       0.00000000       0.00000000       0.00000000       0.00000000      -0.00000000       0.00000000
Ni      -0.00000000       1.98891000       1.83220000      -0.00000000       0.00000000       0.19685200
Ni      -0.00000000       0.00000000       3.34865000       0.00000000      -0.00000000       0.00000000
Ni      -0.00000000       1.98891000       4.86510000       0.00000000      -0.00000000      -0.19685200
4
Lattice="2.196902448 2.196902448 0.0 -4.265022451 4.265022451 0.0 -0.0 0.0 3.955072367" Properties=species:S:1:pos:R:3:forces:R:3 config_type=Hf3Ni energy=-35.01927765 force="_JSON [[-1.063169, 1.063169, 0.0], [0.0, -0.0, -0.0], [1.063169, -1.063169, -0.0], [0.0, -0.0, -0.0]]" virial="1.7378320147465964 -1.78737051864106 0.0 -1.78737051864106 1.7378320147465964 0.0 0.0 0.0 -2.4119108524049664" stress="-0.02344721518982235 0.02411559967758581 -0.0 0.02411559967758581 -0.02344721518982235 -0.0 -0.0 -0.0 0.032542036454112265" free_energy=-35.01927582 pbc="T T T"
Hf      -4.11733000       4.11733000       3.95507000      -1.06316900       1.06316900       0.00000000
Hf       0.03220000       2.16471000       1.97754000       0.00000000      -0.00000000      -0.00000000
Hf      -2.28021000       2.28021000       3.95507000       1.06316900      -1.06316900      -0.00000000
Ni      -2.10032000       4.29722000       1.97754000       0.00000000      -0.00000000      -0.00000000
4
Lattice="1.621368089 1.624855571 -1.624855571 -0.0 6.25369583 6.25369583 1.621368089 -1.624855571 1.624855571" Properties=species:S:1:pos:R:3:forces:R:3 config_type=HfNiTi2 energy=-30.92020119 force="_JSON [[-0.0, -0.0, 0.0], [-0.0, -0.0, 0.0], [-0.0, 0.193085, 0.193085], [0.0, -0.193085, -0.193085]]" virial="1.094177357888106 -0.0 -0.0 -0.0 -0.34151511689188363 -0.8920747429371033 -0.0 -0.8920747429371033 -0.34151511689188363" stress="-0.01660330681065447 0.0 0.0 0.0 0.005182231404583981 0.013536553784669982 0.0 0.013536553784669982 0.005182231404583981" free_energy=-30.9202059 pbc="T T T"
Hf       0.00000000       0.00000000       0.00000000      -0.00000000      -0.00000000       0.00000000
Ni      -0.00000000       3.12685000       3.12685000      -0.00000000      -0.00000000       0.00000000
Ti       1.62137000       1.75469000       1.75469000      -0.00000000       0.19308500       0.19308500
Ti       1.62137000       4.49900000       4.49900000       0.00000000      -0.19308500      -0.19308500
4
Lattice="1.682357569 1.670515444 -1.670515444 -0.0 6.271814192 6.271814192 1.682357569 -1.670515444 1.670515444" Properties=species:S:1:pos:R:3:forces:R:3 config_type=Hf2NiTi energy=-33.04215545 force="_JSON [[0.0, -0.292949, -0.292949], [-0.0, 0.292949, 0.292949], [0.0, 0.0, 0.0], [0.0, -0.0, 0.0]]" virial="-16.68533832142617 -0.0 -0.0 -0.0 -17.45223826015505 -0.7434073523040841 -0.0 -0.7434073523040841 -17.45223826015505" stress="0.23665355933771967 0.0 0.0 0.0 0.24753074963856073 0.010543987336155742 0.0 0.010543987336155742 0.24753074963856073" free_energy=-33.0421529 pbc="T T T"
Hf      -0.00000000       0.19083000       0.19083000       0.00000000      -0.29294900      -0.29294900
Hf      -0.00000000       2.94508000       2.94508000      -0.00000000       0.29294900       0.29294900
Ni       1.68236000       1.56795000       1.56795000       0.00000000       0.00000000       0.00000000
Ti       1.68236000       4.70386000       4.70386000       0.00000000      -0.00000000       0.00000000
4
Lattice="2.037035301 2.037035301 0.0 -3.975833691 3.975833691 0.0 -0.0 0.0 3.973060721" Properties=species:S:1:pos:R:3:forces:R:3 config_type=Hf2Ni2 energy=-31.37689971 force="_JSON [[0.19551, -0.19551, -0.0], [-0.19551, 0.19551, 0.0], [0.135472, -0.135472, -0.0], [-0.135472, 0.135472, 0.0]]" virial="-0.376030878406886 0.8950581984687457 0.0 0.8950581984687457 -0.376030878406886 -0.0 0.0 -0.0 -5.945972097510361" stress="0.005843076149323374 -0.013908148271988567 -0.0 -0.013908148271988567 0.005843076149323374 0.0 -0.0 0.0 0.09239339039043354" free_energy=-31.37689982 pbc="T T T"
Hf      -1.76411000       5.83818000       3.97306000       0.19551000      -0.19551000      -0.00000000
Hf      -0.15013000       2.18717000       1.98653000      -0.19551000       0.19551000       0.00000000
Ni      -1.99247000       1.99247000       3.97306000       0.13547200      -0.13547200      -0.00000000
Ni      -1.95880000       3.99583000       1.98653000      -0.13547200       0.13547200       0.00000000
4