4
Lattice="2.123654411 2.123654411 -0.0 -4.037097862 4.037097862 -0.0 0.0 -0.0 3.42203387" Properties=species:S:1:pos:R:3:forces:R:3 config_type=HfNi2Ti energy=-29.571778 force="_JSON [[1.035325, -1.035325, 0.0], [0.077136, -0.077136, 0.0], [0.015298, -0.015298, 0.0], [-1.127759, 1.127759, -0.0]]" virial="1.3785918929242589 0.1939666867345216 0.0 0.1939666867345216 1.3785918929242589 -0.0 0.0 -0.0 -0.6432938326083483" stress="-0.023494613210124304 -0.003305671753814172 -0.0 -0.003305671753814172 -0.023494613210124304 0.0 -0.0 0.0 0.010963316885269081" free_energy=-29.57177621 pbc="T T T"
Hf      -0.21136000       0.21136000      -0.00000000       1.03532500      -1.03532500       0.00000000
Ni       0.00193000       2.12172000       1.71102000       0.07713600      -0.07713600       0.00000000
Ni      -2.04993000       2.04993000      -0.00000000       0.01529800      -0.01529800       0.00000000
Ti      -1.67263000       3.79629000       1.71102000      -1.12775900       1.12775900      -0.00000000
5
Lattice="-0.004526435 3.230408433 -0.00261124 -7.975710564 1.592940944 1.592940944 -0.004526435 -0.00261124 3.230408433" Properties=species:S:1:pos:R:3:forces:R:3 config_type=Hf3Ni2 energy=-41.81691921 force="_JSON [[-1.035667, -0.059149, -0.059149], [0.0, 0.0, 0.0], [1.035667, 0.059149, 0.059149], [-0.299492, -0.039793, -0.039793], [0.299492, 0.039793, 0.039793]]" virial="2.450132170734161 -0.04977779069978322 -0.04977779069978322 -0.04977779069978322 2.005391558686576 0.07735741251957447 -0.04977779069978322 0.07735741251957447 2.005391558686576" stress="-0.02945431195746481 0.0005984046874440574 0.0005984046874440574 0.0005984046874440574 -0.024107853964760586 -0.0009299536522109762 0.0005984046874440574 -0.0009299536522109762 -0.024107853964760586" free_energy=-41.81691458 pbc="T T T"
Hf      -7.45507000       1.60261000       1.60261000      -1.03566700      -0.05914900      -0.05914900
Hf      -1.59876000       1.60971000       1.60971000       0.00000000       0.00000000       0.00000000
Hf      -3.71817000       3.20974000       3.20974000       1.03566700       0.05914900       0.05914900
Ni      -4.86536000       1.60108000       1.60108000      -0.29949200      -0.03979300      -0.03979300
Ni      -6.30788000       3.21127000       3.21127000       0.29949200       0.03979300       0.03979300
4
Lattice="0.009382977 -0.185630591 3.708127107 -2.09435502 4.226726553 2.09435502 -3.708127107 -0.185630591 -0.009382977" Properties=species:S:1:pos:R:3:forces:R:3 config_type=Hf2Ni2 energy=-31.70844447 force="_JSON [[0.019723, 0.0, 0.019723], [-0.019723, -0.0, -0.019723], [0.013805, 0.0, 0.013805], [-0.013805, -0.0, -0.013805]]" virial="1.712836839717788 0.08806158108448923 -0.08138565091159836 0.08806158108448923 1.50758359209215 -0.08806158108448923 -0.08138565091159836 -0.08806158108448923 1.712836839717788" stress="-0.02807535662175604 -0.0014434301249791398 0.0013340039869841546 -0.0014434301249791398 -0.024711020923667695 0.0014434301249791398 0.0013340039869841546 0.0014434301249791398 -0.02807535662175604" free_energy=-31.70844538 pbc="T T T"
Hf      -5.80148000       4.04110000       2.08598000       0.01972300       0.00000000       0.01972300
Hf      -3.82693000       1.92773000       1.96617000      -0.01972300      -0.00000000      -0.01972300
Ni      -3.94610000       4.04110000       3.94135000       0.01380500       0.00000000       0.01380500
Ni      -1.96480000       1.92773000       3.82830000      -0.01380500      -0.00000000      -0.01380500
5
Lattice="0.0 0.0 3.5409 1.77045 3.5409 -1.77045 -3.5409 1.77045 1.77045" Properties=species:S:1:pos:R:3:forces:R:3 config_type=Ni4Ti energy=-31.04549725 force="_JSON [[-0.446869, 0.343351, 0.0], [-0.343351, -0.446869, 0.0], [0.343351, 0.446869, -0.0], [0.446869, -0.343351, 0.0], [-0.0, 0.0, -0.0]]" virial="-0.665348193929915 -3.4637027018876153e-07 0.0 -3.4637027018876153e-07 -0.665348193929915 0.0 0.0 0.0 -0.7466506483405123" stress="0.011989414744055165 6.241509125883259e-09 -0.0 6.241509125883259e-09 0.011989414744055165 -0.0 -0.0 -0.0 0.013454465456646364" free_energy=-31.04549831 pbc="T T T"
Ni       0.00000000       0.00000000       0.00000000      -0.44686900       0.34335100       0.00000000
Ni      -0.00000000       1.77045000       1.77045000      -0.34335100      -0.44686900       0.00000000
Ni      -0.00000000       3.54090000       0.00000000       0.34335100       0.44686900      -0.00000000
Ni      -1.77045000       1.77045000       3.54090000       0.44686900      -0.34335100       0.00000000
Ti      -1.77045000       3.54090000       1.77045000      -0.00000000       0.00000000      -0.00000000
4
Lattice="2.333675468 2.333675468 -0.0 -3.91666074 3.91666074 0.0 -0.0 0.0 3.407479973" Properties=species:S:1:pos:R:3:forces:R:3 config_type=Hf2Ni2 energy=-31.79801702 force="_JSON [[-0.224657, 0.224657, 0.0], [0.224657, -0.224657, -0.0], [-0.019596, 0.019596, 0.0], [0.019596, -0.019596, -0.0]]" virial="2.4116541959524644 -1.6049843388984937 -0.0 -1.6049843388984937 2.4116541959524644 0.0 -0.0 0.0 0.1828206326829716" stress="-0.0387164306323649 0.025766241664035145 0.0 0.025766241664035145 -0.0387164306323649 -0.0 0.0 -0.0 -0.0029349822853188398" free_energy=-31.79801918 pbc="T T T"
Hf      -3.72078000       3.72078000       0.00000000      -0.22465700       0.22465700       0.00000000
Hf      -0.00821000       2.34188000       1.70374000       0.22465700      -0.22465700      -0.00000000
Ni      -1.92010000       1.92010000       0.00000000      -0.01959600       0.01959600       0.00000000
Ni      -1.80889000       4.14256000       1.70374000       0.01959600      -0.01959600      -0.00000000
5
Lattice="-0.144949778 3.042839114 0.019944009 -6.74799894 1.334590714 1.334590714 -0.144949778 0.019944009 3.042839114" Properties=species:S:1:pos:R:3:forces:R:3 config_type=HfNi4 energy=-32.50290647 force="_JSON [[-0.0, -0.0, 0.0], [0.596074, 0.10317, 0.10317], [0.175826, -0.078933, -0.078933], [-0.175826, 0.078933, 0.078933], [-0.596074, -0.10317, -0.10317]]" virial="-0.029783998552607945 0.5679622596404234 0.5679622596404234 0.5679622596404234 -0.1159849063206014 -0.6190902390667092 0.5679622596404234 -0.6190902390667092 -0.1159849063206014" stress="0.0004858203458313752 -0.009264290720075898 -0.009264290720075898 -0.009264290720075898 0.001891882555673852 0.010098262444949041 -0.009264290720075898 0.010098262444949041 0.001891882555673852" free_energy=-32.50290656 pbc="T T T"
Hf       0.00000000       0.00000000       0.00000000      -0.00000000      -0.00000000       0.00000000
Ni      -1.67650000       1.48071000       1.48071000       0.59607400       0.10317000       0.10317000
Ni      -2.98522000       2.98952000       2.98952000       0.17582600      -0.07893300      -0.07893300
Ni      -4.05268000       1.40785000       1.40785000      -0.17582600       0.07893300       0.07893300
Ni      -5.36140000       2.91667000       2.91667000      -0.59607400      -0.10317000      -0.10317000
5
Lattice="0.0 -2.8649 2.8649 -4.29735 1.43245 1.43245 -2.8649 0.0 -2.8649" Properties=species:S:1:pos:R:3:forces:R:3 config_type=HfNi4 energy=-32.73969506 force="_JSON [[-0.0, 0.0, -0.0], [-0.155386, 0.155386, 0.155386], [-0.63766, 0.63766, 0.63766], [0.63766, -0.63766, -0.63766], [0.155386, -0.155386, -0.155386]]" virial="2.1301064906500393 -0.3414679932597842 -0.3414679932597842 -0.3414679932597842 2.1301064906500393 0.3414679932597842 -0.3414679932597842 0.3414679932597842 2.1301064906500393" stress="-0.03623538706426242 0.005808735366112765 0.005808735366112765 0.005808735366112765 -0.03623538706426242 -0.005808735366112765 0.005808735366112765 -0.005808735366112765 -0.03623538706426242" free_energy=-32.73969764 pbc="T T T"
Hf       0.00000000       0.00000000       0.00000000      -0.00000000       0.00000000      -0.00000000
Ni      -4.29735000      -1.43245000       1.43245000      -0.15538600       0.15538600       0.15538600
Ni      -1.43245000      -1.43245000       1.43245000      -0.63766000       0.63766000       0.63766000
Ni      -5.72980000      -0.00000000      -0.00000000       0.63766000      -0.63766000      -0.63766000
Ni      -2.86490000      -0.00000000       0.00000000       0.15538600      -0.15538600      -0.15538600
4
Lattice="1.741877966 1.644353938 -1.644353938 0.0 5.741394065 5.741394065 1.741877966 -1.644353938 1.644353938" Properties=species:S:1:pos:R:3:forces:R:3 config_type=Hf2Ni2 energy=-30.61648022 force="_JSON [[-0.0, -0.424158, -0.424158], [0.0, 0.424158, 0.424158], [0.0, 0.003249, 0.003249], [-0.0, -0.003249, -0.003249]]" virial="0.49083319371559986 0.0 0.0 0.0 -2.643343622727434 -0.5083506923908649 0.0 -0.5083506923908649 -2.643343622727434" stress="-0.007461799058102946 -0.0 -0.0 -0.0 0.04018493289950271 0.0077281055279770075 -0.0 0.0077281055279770075 0.04018493289950271" free_energy=-30.61648009 pbc="T T T"
Hf       0.00000000       5.57832000       5.57832000      -0.00000000      -0.42415800      -0.42415800
Hf       1.74188000       1.59842000       1.59842000       0.00000000       0.42415800       0.42415800
Ni       0.00000000       2.98332000       2.98332000       0.00000000       0.00324900       0.00324900
Ni       1.74188000       4.19342000       4.19342000      -0.00000000      -0.00324900      -0.00324900
5
Lattice="2.216623435 2.219086084 0.250594907 -2.216623435 2.219086084 0.250594907 -0.0 1.461809278 7.589717738" Properties=species:S:1:pos:R:3:forces:R:3 config_type=Hf2Ni3 energy=-37.22699675 force="_JSON [[0.0, 0.007345, -0.211719], [-0.0, -0.007345, 0.211719], [0.0, 0.027167, -0.716109], [-0.0, -0.0, -0.0], [-0.0, -0.027167, 0.716109]]" virial="-0.7231366693856011 -0.0 -0.0 -0.0 -1.2378559050475233 -0.3259352060718577 -0.0 -0.3259352060718577 -1.4857179445495101" stress="0.009900312983021653 0.0 0.0 0.0 0.016947226446508888 0.004462310775968103 0.0 0.004462310775968103 0.020340653818632978" free_energy=-37.22699659 pbc="T T T"
Hf      -0.00000000       1.49747000       7.28835000       0.00000000       0.00734500      -0.21171900
Hf       0.00000000       2.03197000       2.01979000      -0.00000000      -0.00734500       0.21171900
Ni       0.00000000       4.10907000       3.75351000       0.00000000       0.02716700      -0.71610900
Ni       0.00000000       1.76472000       4.65407000      -0.00000000      -0.00000000      -0.00000000
Ni       0.00000000       3.85854000       6.05581000      -0.00000000      -0.02716700       0.71610900
5
Lattice="0.0 -2.9535 2.9535 -4.43025 1.47675 1.47675 -2.9535 0.0 -2.9535" Properties=species:S:1:pos:R:3:forces:R:3 config_type=HfNi4 energy=-32.99030851 force="_JSON [[0.0, 0.0, 0.0], [-0.137681, 0.137681, 0.137681], [-0.48079, 0.48079, 0.48079], [0.48079, -0.48079, -0.48079], [0.137681, -0.137681, -0.137681]]" virial="-4.59532648672804 -0.29621071943548033 -0.29621071943548033 -0.29621071943548033 -4.59532648672804 0.29621071943548033 -0.29621071943548033 0.29621071943548033 -4.59532648672804" stress="0.0713453114444547 0.00459885627111505 0.00459885627111505 0.00459885627111505 0.0713453114444547 -0.00459885627111505 0.00459885627111505 -0.00459885627111505 0.0713453114444547" free_energy=-32.99032118 pbc="T T T"
Hf       0.00000000       0.00000000       0.00000000       0.00000000       0.00000000       0.00000000
Ni      -4.43025000      -1.47675000       1.47675000      -0.13768100       0.13768100       0.13768100
Ni      -1.47675000      -1.47675000       1.47675000      -0.48079000       0.48079000       0.48079000
Ni      -5.90700000      -0.00000000      -0.00000000       0.48079000      -0.48079000      -0.48079000
Ni      -2.95350000      -0.00000000       0.00000000       0.13768100      -0.13768100      -0.13768100
4
Lattice="1.905751474 1.60148484 -1.60148484 -4.639807212 1.535651799 -1.535651799 -0.0 3.065660708 3.065660708" Properties=species:S:1:pos:R:3:forces:R:3 config_type=Hf2Ni2 energy=-32.02440065 force="_JSON [[-0.197629, -0.36663, 0.36663], [0.197629, 0.36663, -0.36663], [-0.856206, -0.706383, 0.706383], [0.856206, 0.706383, -0.706383]]" virial="-2.69566269867821 0.6526356874343284 -0.6526356874343284 0.6526356874343284 0.1760583850577732 -1.1128435401945314 -0.6526356874343284 -1.1128435401945314 0.1760583850577732" stress="0.04244935865188229 -0.010277237719133744 0.010277237719133744 -0.010277237719133744 -0.0027724409046625876 0.01752426020670592 0.010277237719133744 0.01752426020670592 -0.0027724409046625876" free_energy=-32.02440096 pbc="T T T"
Hf      -4.28001000       1.46745000      -1.46745000      -0.19762900      -0.36663000       0.36663000
Hf      -0.09043000       3.18606000      -0.12040000       0.19762900       0.36663000      -0.36663000
Ni      -1.34977000       1.37878000      -1.37878000      -0.85620600      -0.70638300       0.70638300
Ni      -3.02067000       3.27473000      -0.20907000       0.85620600       0.70638300      -0.70638300
5
Lattice="0.0 -3.0197 3.0197 -4.52955 1.50985 1.50985 -3.0197 0.0 -3.0197" Properties=species:S:1:pos:R:3:forces:R:3 config_type=Hf2Ni3 energy=-36.49855627 force="_JSON [[1.541231, -1.541231, -1.541231], [-1.541231, 1.541231, 1.541231], [0.0, 0.0, -0.0], [-0.151331, 0.151331, 0.151331], [0.151331, -0.151331, -0.151331]]" virial="1.5049848946008448 1.2664183267150315 1.2664183267150315 1.2664183267150315 1.5049848946008448 -1.2664183267150315 1.2664183267150315 -1.2664183267150315 1.5049848946008448" stress="-0.021862545954833595 -0.018396948012686917 -0.018396948012686917 -0.018396948012686917 -0.021862545954833595 0.018396948012686917 -0.018396948012686917 0.018396948012686917 -0.021862545954833595" free_energy=-36.49855188 pbc="T T T"
Hf       0.00000000       0.00000000       0.00000000       1.54123100      -1.54123100      -1.54123100
Hf      -1.50985000      -1.50985000       1.50985000      -1.54123100       1.54123100       1.54123100
Ni      -4.52955000      -1.50985000       1.50985000       0.00000000       0.00000000      -0.00000000
Ni      -6.03940000      -0.00000000      -0.00000000      -0.15133100       0.15133100       0.15133100
Ni      -3.01970000      -0.00000000       0.00000000       0.15133100      -0.15133100      -0.15133100
3
Lattice="2.019010283 2.019010283 0.0 -3.514386735 3.514386735 3.514386735 0.0 -2.019010283 2.019010283" Properties=species:S:1:pos:R:3:forces:R:3 config_type=HfNi2 energy=-20.52291328 force="_JSON [[-0.0, 0.0, -0.0], [-0.099146, 0.099146, 0.099146], [0.099146, -0.099146, -0.099146]]" virial="0.18701756464990052 0.3531452689378988 0.3531452689378988 0.3531452689378988 0.18701756464990052 -0.3531452689378988 0.3531452689378988 -0.3531452689378988 0.18701756464990052" stress="-0.00435145533238329 -0.008216853141588421 -0.008216853141588421 -0.008216853141588421 -0.00435145533238329 0.008216853141588421 -0.008216853141588421 0.008216853141588421 -0.00435145533238329" free_energy=-20.52291285 pbc="T T T"
Hf      -3.51439000       3.51439000       3.51439000      -0.00000000       0.00000000      -0.00000000
Ni       0.15169000       1.86732000       1.86732000      -0.09914600       0.09914600       0.09914600
Ni      -1.64707000       1.64707000       3.66608000       0.09914600      -0.09914600      -0.09914600
3
Lattice="-0.274263167 3.281106434 -0.00795873 -3.985689998 1.326465265 1.326465265 -0.274263167 -0.00795873 3.281106434" Properties=species:S:1:pos:R:3:forces:R:3 config_type=HfNi2 energy=-21.9227399 force="_JSON [[-0.0, 0.0, 0.0], [0.301621, 0.011625, 0.011625], [-0.301621, -0.011625, -0.011625]]" virial="5.426284973226685 0.46137175186432144 0.4613720047403191 0.46137175186432144 0.2773819576484824 -0.024934079115091285 0.4613720047403191 -0.024934079115091285 0.2773819576484824" stress="-0.13393207541179472 -0.011387620917155753 -0.01138762715866488 -0.011387620917155753 -0.006846367533763478 0.000615425282830341 -0.01138762715866488 0.000615425282830341 -0.006846367533763478" free_energy=-21.92274324 pbc="T T T"
Hf      -3.98569000       1.32647000       1.32647000      -0.00000000       0.00000000       0.00000000
Ni      -1.52680000       1.53371000       1.53371000       0.30162100       0.01162500       0.01162500
Ni      -3.00742000       3.06590000       3.06590000      -0.30162100      -0.01162500      -0.01162500
5
Lattice="0.0 -3.1202 3.1202 -4.6803 1.5601 1.5601 -3.1202 0.0 -3.1202" Properties=species:S:1:pos:R:3:forces:R:3 config_type=Hf2Ni2Ti energy=-38.57771015 force="_JSON [[-1.583769, 1.583769, 1.583769], [1.583769, -1.583769, -1.583769], [-0.102778, 0.102778, 0.102778], [0.102778, -0.102778, -0.102778], [0.0, 0.0, 0.0]]" virial="2.7671327646222865 -1.0110936649884295 -1.0110936649884295 -1.0110936649884295 2.7671327646222865 1.0110936649884295 -1.0110936649884295 1.0110936649884295 2.7671327646222865" stress="-0.03643700653355583 0.013313862980567593 0.013313862980567593 0.013313862980567593 -0.03643700653355583 -0.013313862980567593 0.013313862980567593 -0.013313862980567593 -0.03643700653355583" free_energy=-38.57771012 pbc="T T T"
Hf       0.00000000       0.00000000       0.00000000      -1.58376900       1.58376900       1.58376900
Hf      -6.24040000       0.00000000       0.00000000       1.58376900      -1.58376900      -1.58376900
Ni      -4.68030000      -1.56010000       1.56010000      -0.10277800       0.10277800       0.10277800
Ni      -1.56010000      -1.56010000       1.56010000       0.10277800      -0.10277800      -0.10277800
Ti      -3.12020000      -0.00000000       0.00000000       0.00000000       0.00000000       0.00000000
4
Lattice="2.251745122 1.562332843 -1.562332843 0.0 4.036115343 4.036115343 2.251745122 -1.562332843 1.562332843" Properties=species:S:1:pos:R:3:forces:R:3 config_type=HfNi2Ti energy=-29.69471589 force="_JSON [[-0.0, -0.461668, -0.461668], [-0.0, -0.483168, -0.483168], [0.0, 0.10405, 0.10405], [0.0, 0.840787, 0.840787]]" virial="0.1250841376992773 0.0 0.0 0.0 1.7995649693325506 0.3844808932291189 0.0 0.3844808932291189 1.7995649693325506" stress="-0.002202347702613537 -0.0 -0.0 -0.0 -0.031684815107745214 -0.006769528314914731 -0.0 -0.006769528314914731 -0.031684815107745214" free_energy=-29.69471471 pbc="T T T"
Hf       2.25175000      -1.41464000       1.71003000      -0.00000000      -0.46166800      -0.46166800
Ni       2.25175000       1.11126000       1.11126000      -0.00000000      -0.48316800      -0.48316800
Ni       0.00000000       2.01639000       2.01639000       0.00000000       0.10405000       0.10405000
Ti       2.25175000       2.77883000       2.77883000       0.00000000       0.84078700       0.84078700
3
Lattice="1.76397833 1.687247409 -1.408046347 1.262363739 3.909835162 3.909835162 1.76397833 -1.408046347 1.687247409" Properties=species:S:1:pos:R:3:forces:R:3 config_type=HfNi2 energy=-21.12817886 force="_JSON [[0.0, -0.0, -0.0], [0.280733, -0.048405, -0.048405], [-0.280733, 0.048405, 0.048405]]" virial="2.5498242310255614 -0.1363102142176924 -0.1363102142176924 -0.1363102142176924 -1.4365424368366777 -0.19271601675579367 -0.1363102142176924 -0.19271601675579367 -1.4365424368366777" stress="-0.06128693224282006 0.0032763179363951437 0.0032763179363951437 0.0032763179363951437 0.03452837176738811 0.004632073582683001 0.0032763179363951437 0.004632073582683001 0.03452837176738811" free_energy=-21.12817781 pbc="T T T"
Hf       0.00000000       0.00000000       0.00000000       0.00000000      -0.00000000      -0.00000000
Ni       1.56492000       1.45951000       1.45951000       0.28073300      -0.04840500      -0.04840500
Ni       3.22540000       2.72953000       2.72953000      -0.28073300       0.04840500       0.04840500
4
Lattice="0.0 -2.783165861 2.783165861 2.783165861 2.783165861 0.0 -2.783165861 2.783165861 0.0" Properties=species:S:1:pos:R:3:forces:R:3 config_type=Ni3Ti energy=-25.10493842 force="_JSON [[0.0, -0.0, 0.0], [0.0, 0.0, 0.0], [-0.0, 0.0, -0.0], [0.0, 0.0, 0.0]]" virial="2.861090387581373 -0.0 0.0 -0.0 2.861090387581373 0.0 0.0 0.0 2.861090387581373" stress="-0.06635662923786435 0.0 -0.0 0.0 -0.06635662923786435 -0.0 -0.0 -0.0 -0.06635662923786435" free_energy=-25.10494247 pbc="T T T"
Ni      -0.00000000       0.00000000       0.00000000       0.00000000      -0.00000000       0.00000000
Ni      -1.39158000       1.39158000       1.39158000       0.00000000       0.00000000       0.00000000
Ni      -0.00000000       2.78317000       0.00000000      -0.00000000       0.00000000      -0.00000000
Ti       1.39158000       1.39158000       1.39158000       0.00000000       0.00000000       0.00000000
4
Lattice="2.374209674 2.374209674 -0.0 -2.374209674 2.374209674 0.0 -0.0 -0.0 5.462888469" Properties=species:S:1:pos:R:3:forces:R:3 config_type=Hf2Ni2 energy=-31.71193887 force="_JSON [[-0.0, -0.0, 0.454041], [0.0, 0.0, -0.454041], [0.0, 0.0, -0.113845], [-0.0, -0.0, 0.113845]]" virial="1.376155384712941 -0.0 -0.0 -0.0 1.376155384712941 0.0 -0.0 0.0 5.821092195246198" stress="-0.022344827364990594 0.0 0.0 0.0 -0.022344827364990594 -0.0 0.0 -0.0 -0.09451788774971993" free_energy=-31.71193656 pbc="T T T"
Hf       2.37421000       2.37421000       5.18279000      -0.00000000      -0.00000000       0.45404100
Hf       0.00000000       2.37421000       1.64582000       0.00000000       0.00000000      -0.45404100
Ni       2.37421000       2.37421000       2.68006000       0.00000000       0.00000000      -0.11384500
Ni       0.00000000       2.37421000       4.14855000      -0.00000000      -0.00000000       0.11384500
5
Lattice="0.0 -3.0113 3.0113 -4.51695 1.50565 1.50565 -3.0113 0.0 -3.0113" Properties=species:S:1:pos:R:3:forces:R:3 config_type=Ni2Ti3 energy=-35.10220645 force="_JSON [[-0.065457, 0.065457, 0.065457], [0.065457, -0.065457, -0.065457], [0.753398, -0.753398, -0.753398], [-0.0, -0.0, 0.0], [-0.753398, 0.753398, 0.753398]]" virial="0.356274053793606 -0.6858072934234134 -0.6858072934234134 -0.6858072934234134 0.356274053793606 0.6858072934234134 -0.6858072934234134 0.6858072934234134 0.356274053793606" stress="-0.005218937719753301 0.010046158326766167 0.010046158326766167 0.010046158326766167 -0.005218937719753301 -0.010046158326766167 0.010046158326766167 -0.010046158326766167 -0.005218937719753301" free_energy=-35.1022058 pbc="T T T"
Ni       0.00000000       0.00000000       0.00000000      -0.06545700       0.06545700       0.06545700
Ni      -4.51695000      -1.50565000       1.50565000       0.06545700      -0.06545700      -0.06545700
Ti      -1.50565000      -1.50565000       1.50565000       0.75339800      -0.75339800      -0.75339800
Ti      -6.02260000      -0.00000000      -0.00000000      -0.00000000      -0.00000000       0.00000000
Ti      -3.01130000      -0.00000000       0.00000000      -0.75339800       0.75339800       0.75339800
5
Lattice="0.0 -3.1746 3.1746 -4.7619 1.5873 1.5873 -3.1746 0.0 -3.1746" Properties=species:S:1:pos:R:3:forces:R:3 config_type=Hf3Ni2 energy=-40.64004181 force="_JSON [[1.653406, -1.653406, -1.653406], [0.0, -0.0, -0.0], [-1.653406, 1.653406, 1.653406], [-0.257767, 0.257767, 0.257767], [0.257767, -0.257767, -0.257767]]" virial="3.4327855238176594 -1.8915504787169413 -1.8915504787169413 -1.8915504787169413 3.4327855238176594 1.8915504787169413 -1.8915504787169413 1.8915504787169413 3.4327855238176594" stress="-0.04291801484761748 0.023648897074207014 0.023648897074207014 0.023648897074207014 -0.04291801484761748 -0.023648897074207014 0.023648897074207014 -0.023648897074207014 -0.04291801484761748" free_energy=-40.64004042 pbc="T T T"
Hf       0.00000000       0.00000000       0.00000000       1.65340600      -1.65340600      -1.65340600
Hf      -4.76190000      -1.58730000       1.58730000       0.00000000      -0.00000000      -0.00000000
Hf      -1.58730000      -1.58730000       1.58730000      -1.65340600       1.65340600       1.65340600
Ni      -6.34920000      -0.00000000      -0.00000000      -0.25776700       0.25776700       0.25776700
Ni      -3.17460000      -0.00000000       0.00000000       0.25776700      -0.25776700      -0.25776700
5
Lattice="0.0 -2.8104 2.8104 -4.2156 1.4052 1.4052 -2.8104 0.0 -2.8104" Properties=species:S:1:pos:R:3:forces:R:3 config_type=Ni4Ti energy=-30.73761214 force="_JSON [[0.062426, -0.062426, -0.062426], [-0.276801, 0.276801, 0.276801], [0.276801, -0.276801, -0.276801], [-0.062426, 0.062426, 0.062426], [-0.0, -0.0, -0.0]]" virial="-0.44441264793693847 -0.38667082772342715 -0.38667082772342715 -0.38667082772342715 -0.44441264793693847 0.38667082772342715 -0.38667082772342715 0.38667082772342715 -0.44441264793693847" stress="0.008008330563201788 0.006967821059844041 0.006967821059844041 0.006967821059844041 0.008008330563201788 -0.006967821059844041 0.006967821059844041 -0.006967821059844041 0.008008330563201788" free_energy=-30.73761349 pbc="T T T"
Ni       0.00000000       0.00000000       0.00000000       0.06242600      -0.06242600      -0.06242600
Ni      -4.21560000      -1.40520000       1.40520000      -0.27680100       0.27680100       0.27680100
Ni      -1.40520000      -1.40520000       1.40520000       0.27680100      -0.27680100      -0.27680100
Ni      -5.62080000       0.00000000       0.00000000      -0.06242600       0.06242600       0.06242600
Ti      -2.81040000      -0.00000000       0.00000000      -0.00000000      -0.00000000      -0.00000000
5
Lattice="0.0 -2.8974 2.8974 -4.3461 1.4487 1.4487 -2.8974 0.0 -2.8974" Properties=species:S:1:pos:R:3:forces:R:3 config_type=Ni4Ti energy=-30.83029586 force="_JSON [[0.050337, -0.050337, -0.050337], [-0.211046, 0.211046, 0.211046], [0.211046, -0.211046, -0.211046], [-0.050337, 0.050337, 0.050337], [-0.0, 0.0, -0.0]]" virial="-6.558424953673072 -0.3283532944885419 -0.3283532944885419 -0.3283532944885419 -6.558424953673072 0.3283532944885419 -0.3283532944885419 0.3283532944885419 -6.558424953673072" stress="0.10785348366506385 0.005399779205166643 0.005399779205166643 0.005399779205166643 0.10785348366506385 -0.005399779205166643 0.005399779205166643 -0.005399779205166643 0.10785348366506385" free_energy=-30.83029845 pbc="T T T"
Ni       0.00000000       0.00000000       0.00000000       0.05033700      -0.05033700      -0.05033700
Ni      -4.34610000      -1.44870000       1.44870000      -0.21104600       0.21104600       0.21104600
Ni      -1.44870000      -1.44870000       1.44870000       0.21104600      -0.21104600      -0.21104600
Ni      -5.79480000       0.00000000       0.00000000      -0.05033700       0.05033700       0.05033700
Ti      -2.89740000      -0.00000000       0.00000000      -0.00000000       0.00000000      -0.00000000
